/*--------------------------------*- C++ -*----------------------------------*\
| =========                 |                                                 |
| \\      /  F ield         | OpenFOAM: The Open Source CFD Toolbox           |
|  \\    /   O peration     | Version:  v1912                                 |
|   \\  /    A nd           | Website:  www.openfoam.com                      |
|    \\/     M anipulation  |                                                 |
\*---------------------------------------------------------------------------*/
FoamFile
{
    version     2.0;
    format      ascii;
    class       volTensorField;
    location    "60000";
    object      grad(U);
}
// * * * * * * * * * * * * * * * * * * * * * * * * * * * * * * * * * * * * * //

dimensions      [0 0 -1 0 0 0 0];


internalField   nonuniform List<tensor> 
4520
(
(41.190715 -2.9068335e-08 -0.39943269 0 -52.861769 2.2640899e-06 -1.849267 -7.9100165e-06 -26.045563)
(94.377691 -1.1087466e-07 -0.86660057 0 -78.963567 5.0128269e-06 -2.2838715 -6.7297352e-06 -29.128089)
(119.1771 -1.0732486e-07 -1.1117173 5.9333911e-10 -106.98576 9.9323251e-06 -3.5374147 -4.9316163e-06 -36.538783)
(152.91904 -7.6463289e-08 -1.585691 0 -147.09829 1.1950024e-05 -4.2049034 -4.1581036e-06 -48.549015)
(207.39011 -1.6816232e-08 -2.0895243 0 -204.6088 1.4603799e-05 -5.2809427 -3.1094446e-06 -64.399409)
(279.54254 -5.6033517e-09 -2.4758932 -5.4406518e-10 -277.26494 1.2955308e-05 -6.9424227 -3.8932666e-06 -84.166059)
(368.51265 -6.7168813e-08 -2.7176121 0 -361.61515 1.5077967e-05 -8.9135612 -3.7024468e-06 -109.74583)
(478.62458 -1.0596467e-07 -2.8025514 0 -453.83304 1.7485468e-05 -11.071184 -3.3683772e-06 -144.52622)
(615.07632 -1.2640074e-07 -2.685704 1.3378387e-09 -548.53 2.252161e-05 -13.416385 -2.6816632e-06 -192.80981)
(781.04232 -1.4953938e-07 -2.3420535 0 -636.43345 2.680595e-05 -15.908304 -2.6482577e-06 -259.71177)
(976.54718 -1.8280235e-07 -1.8312359 1.7309011e-09 -707.08545 3.4166568e-05 -18.482771 -1.5178998e-06 -350.06051)
(1196.6186 -1.8878123e-07 -1.2902636 2.0084585e-09 -752.03216 4.1500181e-05 -21.015534 -1.1412218e-06 -465.83244)
(1428.3531 -1.1338987e-07 -0.91187082 2.3405239e-09 -769.54332 5.0056922e-05 -23.346097 -6.1244091e-07 -602.26884)
(1648.798 -4.3200614e-09 -0.82938594 -2.7197999e-09 -768.317 5.2773802e-05 -25.173858 -1.1939848e-06 -743.91929)
(1825.8617 -8.3364351e-08 -0.92984215 -6.2601069e-09 -763.77549 5.4138468e-05 -26.116003 -2.3538967e-06 -864.70243)
(1923.7663 -1.0969769e-07 -0.86023281 -3.5480876e-09 -766.54147 6.0642187e-05 -25.698515 -1.6064916e-06 -934.06997)
(1913.4929 -5.9036447e-08 -0.12230999 0 -772.33366 6.2375933e-05 -23.553781 -1.7709274e-06 -930.67038)
(1784.4357 -8.2796356e-08 1.4984364 -4.3084406e-09 -761.42371 6.4347679e-05 -19.798225 -1.4073221e-06 -852.27642)
(1552.1159 -7.9798685e-08 3.8526962 0 -715.15744 6.5560633e-05 -14.986349 -8.4462249e-07 -718.22756)
(1256.126 -7.3224126e-08 6.2430982 0 -624.11747 6.5669165e-05 -10.316024 -3.7235644e-08 -560.15297)
(948.20343 -5.5452165e-08 7.9210781 0 -505.14301 6.5061746e-05 -6.8428143 8.2546678e-07 -407.96505)
(674.24025 -5.8713619e-08 8.417988 -5.2791174e-09 -379.42202 6.3411075e-05 -5.2709435 1.4802295e-06 -281.92429)
(464.37363 -4.1464514e-08 7.4699013 1.0951819e-08 -271.35354 6.2105433e-05 -5.6541189 2.2551914e-06 -189.72943)
(323.36576 -1.3448084e-08 5.9310882 0 -195.03131 5.9957123e-05 -6.7769102 2.754083e-06 -130.07362)
(41.035596 5.9928424e-09 -0.5479555 1.2592607e-10 -41.851998 8.8805648e-06 -2.0297368 -1.0683171e-06 -35.830145)
(94.258462 1.8751704e-08 -1.4873489 0 -52.3127 8.398716e-06 -3.5548582 -6.6378852e-07 -39.193595)
(119.06428 1.3381369e-08 -2.2546914 0 -67.837842 7.8946646e-06 -5.061241 1.5284583e-08 -50.143239)
(152.78551 1.8301468e-08 -3.2179608 0 -91.533826 7.6569959e-06 -6.1946276 3.1753022e-07 -68.1226)
(207.1704 -3.5771959e-10 -4.168357 1.9715619e-10 -124.10831 7.3234206e-06 -7.8053102 6.5472336e-07 -92.181691)
(279.23354 -2.8270979e-08 -5.1117843 0 -165.01656 7.6686941e-06 -10.123707 4.3228391e-07 -122.82692)
(368.10125 -1.4005148e-08 -6.2044157 -2.1119078e-10 -215.22953 8.0779978e-06 -13.113101 6.7366084e-07 -162.13149)
(478.06479 -1.8180711e-08 -7.5499353 -2.2891058e-10 -277.10563 8.4258141e-06 -16.85225 8.1945655e-07 -213.11443)
(614.30971 -4.9261321e-08 -9.1611791 -2.5476905e-10 -353.45153 9.1694009e-06 -21.465607 1.3691862e-06 -278.86469)
(780.01846 -4.7099564e-08 -10.997123 0 -446.74384 1.0372639e-05 -26.972322 1.7305687e-06 -362.33115)
(975.2477 -5.9091781e-08 -12.921122 -6.7104399e-10 -558.76575 1.134998e-05 -33.202837 2.569663e-06 -465.10348)
(1195.0917 -9.8469873e-08 -14.585984 7.8511676e-10 -688.91678 1.3098477e-05 -39.664886 3.4774597e-06 -585.36042)
(1426.7514 -7.2444811e-08 -15.358582 0 -831.66933 1.5060309e-05 -45.45628 4.5476534e-06 -715.43502)
(1647.3923 -5.8627636e-08 -14.353181 0 -973.73068 1.6470669e-05 -49.239192 4.7186619e-06 -839.72724)
(1824.9977 -6.5177514e-08 -10.604075 -1.2537086e-09 -1093.1899 1.8068664e-05 -49.52562 4.8239237e-06 -936.69697)
(1923.7498 -4.4999573e-08 -3.6826141 0 -1162.5305 1.924113e-05 -45.179384 5.635568e-06 -983.38833)
(1914.4414 -3.1165914e-08 5.9574429 0 -1159.4363 1.9954334e-05 -36.178342 5.8807799e-06 -965.2743)
(1786.1789 -2.1188194e-08 16.698302 0 -1076.3978 2.0206615e-05 -24.006727 6.2759409e-06 -882.03054)
(1554.2151 5.2060422e-09 26.309227 3.8196844e-09 -927.70611 2.0040519e-05 -11.251692 6.6786539e-06 -748.84868)
(1258.0456 3.5403835e-08 32.671314 -2.0305927e-09 -742.3774 1.9306629e-05 -0.92871714 6.9593729e-06 -592.05402)
(949.52425 4.5810934e-08 34.625093 0 -555.16504 1.8305824e-05 5.0235122 7.129494e-06 -437.63525)
(674.77924 5.2389679e-08 32.297271 0 -392.35423 1.7202052e-05 6.098608 7.1764741e-06 -306.84326)
(464.29344 7.2458283e-08 26.501965 -1.1616765e-09 -268.64011 1.6076136e-05 3.1789295 7.2366518e-06 -208.55862)
(322.57964 1.7548857e-08 19.321431 0 -186.75978 1.4972032e-05 -1.4231405 7.1652977e-06 -145.19457)
(40.755337 -9.3504015e-09 -0.69768193 0 -39.975938 1.7580667e-06 -1.757403 2.0439741e-06 -36.556634)
(93.994205 -9.4462481e-09 -2.4463601 0 -46.493497 1.6938355e-06 -4.1816957 1.9731949e-06 -40.214747)
(118.86174 -6.9312424e-09 -4.2778112 0 -60.20164 1.6404657e-06 -6.2953616 1.8836605e-06 -52.387255)
(152.51903 -5.0397803e-09 -6.158946 0 -81.930483 1.6126334e-06 -8.3040224 1.8870957e-06 -71.86693)
(206.79554 -4.5170213e-09 -7.9885933 0 -111.49717 1.6243983e-06 -10.70066 1.8276721e-06 -97.869588)
(278.73583 -3.9426829e-09 -9.9397077 0 -149.04051 1.6762451e-06 -13.742196 1.9620147e-06 -131.10605)
(367.4464 -1.0840034e-08 -12.243202 1.3488451e-10 -195.99456 1.7675266e-06 -17.567542 2.1382779e-06 -173.24812)
(477.20346 -1.256474e-08 -14.970347 2.9597054e-10 -254.62993 1.9720679e-06 -22.27843 2.2658636e-06 -226.34177)
(613.19598 -1.3014123e-08 -18.036687 0 -327.1014 2.1738027e-06 -27.891156 2.4965434e-06 -292.1749)
(778.627 -7.6141935e-09 -21.248584 0 -414.94465 2.4921609e-06 -34.264372 2.889411e-06 -371.97746)
(973.60065 7.2657457e-09 -24.212798 0 -518.33688 2.7577214e-06 -40.981135 3.1986749e-06 -465.54315)
(1193.2965 1.0164237e-08 -26.236574 -2.6470046e-10 -634.63267 3.0391707e-06 -47.242267 3.7915724e-06 -570.0261)
(1425.0358 7.6793015e-09 -26.279172 0 -756.71153 3.363832e-06 -51.793929 4.487716e-06 -678.68468)
(1646.1064 1.0144148e-08 -23.143044 -3.7149602e-10 -871.48836 3.7189828e-06 -53.031299 4.9613492e-06 -780.20524)
(1824.5516 8.9938459e-09 -15.688928 0 -961.10576 3.9942009e-06 -49.345327 5.5488928e-06 -859.97453)
(1924.4575 5.1545573e-09 -3.6128278 5.0269377e-10 -1005.564 4.2662442e-06 -39.708757 6.0449368e-06 -902.30734)
(1916.3405 1.0269858e-08 12.254725 0 -990.54809 4.4088212e-06 -24.461511 6.3887098e-06 -895.19269)
(1788.9107 1.4473774e-08 29.633037 0 -912.88393 4.4176273e-06 -5.6871651 6.6083496e-06 -834.5148)
(1557.07 1.6078672e-08 45.182749 -6.9075718e-10 -784.18359 4.2911509e-06 12.938503 6.6941145e-06 -727.05636)
(1260.2178 8.7476372e-09 55.655887 -7.4137293e-10 -627.57298 4.0736995e-06 27.33894 6.5784651e-06 -590.86876)
(950.42627 3.7658603e-09 58.91171 2.3584018e-09 -469.54143 3.8262673e-06 34.60057 6.3663752e-06 -448.49556)
(674.2316 -1.0985731e-09 54.997443 0 -332.39667 3.5337817e-06 33.918477 6.0903124e-06 -321.59264)
(462.61849 2.9618593e-09 44.95186 8.68533e-10 -227.64811 3.2601438e-06 26.906062 5.7895587e-06 -222.5602)
(319.92025 -2.0525119e-08 33.226906 0 -159.14552 2.9845096e-06 16.35139 5.4915867e-06 -156.30819)
(40.348312 -2.2502637e-10 -1.0777648 5.2412377e-11 -39.237267 6.5005064e-07 -1.9860796 6.0223037e-07 -36.527747)
(93.450426 3.2680443e-09 -4.1513665 0 -44.749644 6.0918257e-07 -5.3143066 5.9884838e-07 -40.970965)
(118.37143 7.020566e-09 -7.5533991 0 -58.209501 5.7747666e-07 -8.8193993 5.8866771e-07 -53.694304)
(151.97513 9.4455327e-09 -10.752323 -4.5053689e-11 -79.448565 5.4151789e-07 -12.123159 6.2328263e-07 -73.590155)
(206.12265 4.8896615e-09 -13.831683 0 -108.0321 5.2800719e-07 -15.678996 6.3940146e-07 -100.00175)
(277.87671 7.8654091e-09 -17.177323 0 -144.3513 5.4294198e-07 -19.916324 6.9969191e-07 -133.63491)
(366.33511 1.1783695e-08 -21.123438 -5.1545823e-11 -189.92269 5.4541118e-07 -25.119494 7.5466759e-07 -176.1146)
(475.77233 8.1616646e-09 -25.757346 0 -246.91111 5.7209565e-07 -31.417534 8.876257e-07 -229.46536)
(611.3897 7.769131e-09 -30.953666 0 -317.40432 6.2840457e-07 -38.768214 1.0035709e-06 -295.69484)
(776.42933 1.3015109e-08 -36.408636 0 -402.98451 6.9385419e-07 -46.899139 1.1803569e-06 -376.40134)
(971.08045 1.7551666e-08 -41.490243 0 -503.97652 7.6505077e-07 -55.144785 1.3316362e-06 -472.00414)
(1190.6655 2.2589212e-08 -45.076545 0 -618.09278 8.420703e-07 -62.276821 1.4947707e-06 -580.45487)
(1422.6945 2.2155001e-08 -45.495757 2.5726035e-10 -738.79943 9.1274365e-07 -66.446398 1.6913757e-06 -695.67466)
(1644.6358 2.1489213e-08 -40.786598 0 -854.0031 1.0076154e-06 -65.357803 1.9114914e-06 -806.54901)
(1824.6065 2.8484414e-08 -29.019092 3.6473258e-10 -946.73173 1.0785143e-06 -56.799466 2.1067981e-06 -897.21077)
(1926.5212 2.8899346e-08 -9.4802695 0 -997.5627 1.1094002e-06 -39.488197 2.2905125e-06 -949.56523)
(1920.4431 2.6003951e-08 16.795772 4.8889609e-10 -991.213 1.1257902e-06 -14.093844 2.4310811e-06 -948.3431)
(1794.3872 2.439879e-08 46.257191 0 -922.43588 1.1013869e-06 16.080366 2.4973097e-06 -887.10144)
(1562.6197 2.0900415e-08 73.32327 0 -800.33578 1.0488995e-06 45.308399 2.4838441e-06 -772.78379)
(1264.3038 1.8647098e-08 92.215646 0 -646.62268 9.7077309e-07 67.206206 2.4164759e-06 -625.13827)
(951.81402 1.2660233e-08 98.943411 7.0615141e-10 -487.97819 8.7601944e-07 77.144772 2.3250665e-06 -470.33194)
(672.48634 5.9275609e-09 93.160668 0 -347.91982 7.8522747e-07 73.854313 2.19911e-06 -332.24315)
(458.1851 1.1481876e-08 76.818433 7.9474815e-10 -239.72764 6.9714314e-07 60.239232 2.0743312e-06 -225.29498)
(313.63437 -6.2636233e-09 56.548287 0 -167.72658 6.0499297e-07 40.481897 1.9378841e-06 -153.91324)
(39.641535 -1.6485885e-09 -1.7599551 2.0723375e-11 -38.596811 1.4487485e-07 -2.6959495 3.5932683e-07 -35.803683)
(92.239955 -2.1417346e-09 -6.8004695 0 -43.822242 1.3461188e-07 -7.601836 3.3989461e-07 -40.603824)
(117.18764 6.0050382e-09 -12.454373 3.7306514e-11 -57.188269 1.3312247e-07 -13.2403 3.3007115e-07 -53.424727)
(150.76766 8.611164e-09 -17.553732 0 -78.177637 1.0917291e-07 -18.484526 3.2044489e-07 -73.442499)
(204.73599 8.4342356e-09 -22.416499 -3.7909392e-11 -106.26286 1.1159222e-07 -23.836113 3.2081902e-07 -99.962829)
(276.16612 1.129891e-08 -27.73748 0 -141.96179 9.7344072e-08 -29.975986 3.3526081e-07 -133.67093)
(364.17966 1.2095319e-08 -34.002343 -4.4056132e-11 -186.8497 1.0129744e-07 -37.364248 3.5517966e-07 -176.2554)
(473.08741 1.5064887e-08 -41.315844 0 -243.05249 9.3108151e-08 -46.157022 3.7859653e-07 -229.78865)
(608.13996 1.3576783e-08 -49.473829 0 -312.64249 9.7124942e-08 -56.215142 4.3351291e-07 -296.313)
(772.66865 1.5737625e-08 -57.980451 0 -397.20378 1.0415944e-07 -67.053512 4.883404e-07 -377.46086)
(967.02931 1.7787272e-08 -65.815066 0 -497.06679 1.1202515e-07 -77.612523 5.3815971e-07 -473.67725)
(1186.7918 2.10134e-08 -71.194575 0 -609.94555 1.2054875e-07 -86.014626 6.0935098e-07 -582.83952)
(1419.7551 2.3089079e-08 -71.533495 0 -729.32316 1.2598223e-07 -89.542524 6.777291e-07 -698.72091)
(1643.6188 2.5445634e-08 -63.846948 1.4310229e-10 -843.24161 1.3143051e-07 -84.935965 7.6019876e-07 -809.90551)
(1826.5201 2.3032286e-08 -45.293858 -3.4348056e-10 -934.89042 1.2808605e-07 -69.230998 8.3699916e-07 -900.24862)
(1931.9881 2.1013757e-08 -14.920228 0 -985.15879 1.3437863e-07 -40.948059 8.8441136e-07 -951.50941)
(1929.2411 2.1406234e-08 25.60369 -2.3641035e-10 -978.80307 1.2324367e-07 -1.4713638 9.2237061e-07 -948.55742)
(1805.0986 1.5844146e-08 70.774464 0 -910.40324 1.0996485e-07 44.036437 9.3040002e-07 -885.19203)
(1572.7582 1.1307007e-08 112.0709 0 -788.74407 9.4535559e-08 87.074346 9.1325705e-07 -768.58738)
(1271.0312 7.5235843e-09 140.62163 -3.3196823e-10 -635.24519 7.5123372e-08 118.30024 8.7083961e-07 -618.52785)
(952.91602 3.9911858e-09 150.33173 0 -476.72532 5.497257e-08 131.10108 8.1457327e-07 -461.25554)
(667.28505 6.4338708e-10 140.76829 0 -336.90783 3.4836076e-08 123.90386 7.5445919e-07 -321.01533)
(447.6678 -8.6305396e-10 115.20695 0 -229.29834 1.7199481e-08 101.32278 6.9155456e-07 -212.71498)
(299.82163 -6.1474136e-09 84.127443 4.45668e-10 -158.10279 2.0507692e-09 69.944254 6.2130649e-07 -140.75479)
(38.272513 -2.2912715e-09 -2.8437201 0 -37.768838 1.0759897e-08 -3.9523448 1.1238079e-07 -34.006097)
(89.565947 -1.2952358e-09 -10.675772 1.730162e-11 -42.92788 1.1622363e-08 -11.264345 1.0723423e-07 -38.972737)
(114.47684 2.3817309e-09 -19.477754 0 -56.241059 9.6562933e-09 -19.971753 1.0787789e-07 -51.826412)
(148.10995 3.5563273e-09 -27.21406 0 -77.105588 6.2658245e-09 -27.951233 9.0140827e-08 -71.90433)
(201.8228 2.3759578e-09 -34.475712 0 -104.8965 4.6412484e-09 -35.79526 9.7889678e-08 -98.363478)
(272.68629 5.9778558e-09 -42.428112 -1.8777112e-11 -140.17878 5.7481434e-09 -44.574239 8.5788725e-08 -131.83023)
(359.92473 7.1461738e-09 -51.780958 0 -184.57708 -1.7303489e-09 -54.990569 8.9898653e-08 -174.0985)
(467.96736 6.8033517e-09 -62.645047 0 -240.20166 -1.2117207e-09 -67.222399 9.1267913e-08 -227.32429)
(602.1811 8.6305506e-09 -74.708979 -2.775716e-11 -309.11094 -7.6332189e-09 -81.008345 9.8805075e-08 -293.61237)
(766.07233 4.6008154e-09 -87.244499 0 -392.91485 -9.436758e-09 -95.60867 1.1637285e-07 -374.75568)
(960.29699 6.1481693e-09 -98.739027 8.0077154e-11 -492.00967 -4.9497691e-09 -109.46354 1.219647e-07 -471.44253)
(1180.834 1.1368485e-08 -106.56874 0 -604.20729 -9.8261064e-09 -119.86222 1.4048447e-07 -581.84957)
(1415.9139 9.7215424e-09 -106.97501 -1.2018583e-10 -723.1505 -1.4422299e-08 -122.94733 1.5331991e-07 -700.06202)
(1643.5183 1.0272678e-08 -95.650268 0 -837.10395 -1.5649607e-08 -114.17811 1.6662339e-07 -814.80809)
(1831.6864 1.1401613e-08 -68.558541 0 -929.47032 -2.2183917e-08 -89.55532 1.7483517e-07 -909.78495)
(1943.1973 9.6684271e-09 -24.373162 0 -981.29044 -2.7429949e-08 -47.27273 1.8381695e-07 -966.20091)
(1945.8265 8.5757058e-09 34.524701 0 -977.08964 -3.2719556e-08 10.455504 1.8066563e-07 -967.79789)
(1824.4332 6.9274602e-09 100.24233 0 -910.85585 -3.8596804e-08 76.136987 1.7512868e-07 -906.82667)
(1590.5057 4.3578674e-09 160.4882 1.6688264e-10 -790.60052 -4.3196529e-08 137.67002 1.6604534e-07 -789.08652)
(1282.3447 3.8285782e-09 202.32802 1.8641698e-10 -637.23113 -4.6336272e-08 181.84311 1.5166672e-07 -633.9065)
(954.07065 3.2928185e-09 216.72427 0 -477.61554 -5.0915768e-08 199.21866 1.3217551e-07 -468.34035)
(657.21839 1.4323688e-09 202.74092 0 -336.04575 -5.3463546e-08 187.62136 1.103917e-07 -318.79882)
(428.34497 9.1762752e-10 165.55716 0 -226.84799 -5.4918993e-08 153.72443 8.8330922e-08 -202.78742)
(275.00866 7.3169986e-10 119.47588 0 -154.36274 -5.5745822e-08 107.70265 6.9519223e-08 -125.52879)
(35.62939 1.1234507e-10 -4.4051364 0 -36.373618 -6.719307e-09 -5.8190864 1.375224e-08 -30.213529)
(84.09171 7.4881383e-11 -15.97297 0 -41.529086 -7.0360647e-09 -16.439063 1.4019237e-08 -35.235895)
(108.86727 -1.1572067e-09 -28.913885 8.464177e-12 -54.802361 -6.9956423e-09 -29.234569 1.114535e-08 -48.104257)
(142.76225 1.0277496e-09 -40.036524 0 -75.574154 -5.780277e-09 -40.735574 1.3715601e-08 -68.177769)
(196.15057 4.3900029e-10 -50.26577 -9.0238506e-12 -103.10422 -8.2399036e-09 -51.670182 6.7170639e-09 -94.374457)
(266.0687 -1.9347464e-09 -61.470922 1.9648358e-11 -137.95925 -6.5441313e-09 -63.714718 7.2052604e-09 -127.24234)
(352.01438 1.6891075e-09 -74.69983 -2.2062195e-11 -181.83243 -6.2270544e-09 -77.93226 1.7969766e-09 -168.75412)
(458.69018 3.3606934e-09 -90.050747 -2.5460589e-11 -236.85571 -9.7466317e-09 -94.517293 7.2758996e-09 -221.22779)
(591.68526 3.6954153e-09 -107.08552 0 -305.10552 -1.1294011e-08 -113.06987 1.8638748e-09 -286.9268)
(754.81577 9.7040585e-10 -124.81962 -3.6261256e-11 -388.27171 -1.6915876e-08 -132.57143 -1.0349043e-09 -367.95095)
(949.25171 4.8459823e-10 -141.14088 4.4369101e-11 -486.88306 -1.5351709e-08 -150.85743 6.7131487e-09 -465.3791)
(1171.6311 3.1681037e-09 -152.3651 0 -598.92633 -2.0379775e-08 -164.16665 2.8427875e-09 -577.82215)
(1410.8212 1.3283561e-09 -153.21943 6.8090776e-11 -718.2462 -2.3576431e-08 -167.16781 6.4910294e-10 -699.77245)
(1645.1336 2.0322803e-09 -137.64365 8.444302e-11 -833.27291 -2.6747327e-08 -153.61195 1.9196188e-09 -820.04402)
(1842.2862 -3.7774133e-11 -100.00652 2.0796486e-10 -927.42244 -3.1214226e-08 -118.07947 -2.7352175e-09 -921.77601)
(1963.7238 -1.3332481e-09 -38.429197 0 -981.57728 -3.1392769e-08 -58.242755 -5.8423194e-09 -985.08487)
(1974.852 4.0953253e-10 43.908754 0 -979.69365 -3.3553233e-08 22.747423 -1.1273583e-08 -991.93166)
(1857.4191 7.8358446e-10 136.11093 0 -914.90136 -3.5699454e-08 114.45846 -1.6092521e-08 -932.44089)
(1620.2779 1.1282763e-09 221.02252 0 -794.42154 -3.7344392e-08 200.13067 -2.1245419e-08 -810.7918)
(1300.9854 5.9949695e-10 280.33579 0 -638.87437 -3.85964e-08 261.40029 -2.7330212e-08 -646.00788)
(955.54964 -2.5326414e-10 300.90574 0 -475.62559 -3.8241774e-08 284.8744 -3.4256351e-08 -466.77254)
(639.91906 -9.1996058e-10 280.78276 0 -330.09128 -3.7190572e-08 267.2844 -4.1407266e-08 -303.05911)
(395.94386 -7.317945e-10 227.85871 3.1794111e-10 -217.85308 -3.5159815e-08 217.95779 -4.7477837e-08 -176.45345)
(234.27072 1.9307961e-09 161.91869 -1.7497826e-10 -143.53207 -3.3720225e-08 152.82061 -5.3284105e-08 -93.685848)
(30.950501 -2.8993394e-10 -6.4260264 0 -33.990431 -2.6955623e-09 -8.2904191 -6.0603579e-09 -23.312446)
(74.176405 -1.1430272e-09 -22.63191 0 -39.151475 -2.3736155e-09 -23.040852 -8.4807632e-09 -28.312817)
(98.73791 2.2587428e-09 -40.582895 0 -52.398618 -1.6472992e-09 -40.820275 -9.4260065e-09 -41.273769)
(133.36384 -3.8803925e-10 -55.639367 0 -73.095681 -4.4423076e-09 -56.399988 -5.472141e-09 -61.42668)
(186.45123 -4.5388627e-09 -69.136835 0 -100.34626 -1.5283737e-09 -70.691768 -8.0994155e-09 -87.220726)
(254.92444 -2.6456842e-10 -83.96495 -2.3581614e-11 -134.69035 -1.1569729e-09 -86.300585 -5.8664379e-09 -119.12895)
(338.86617 2.5549973e-09 -101.66961 0 -177.91929 -1.8959409e-09 -104.83043 -5.8903462e-09 -159.40636)
(443.50864 1.3075892e-09 -122.30794 -3.1182546e-11 -232.22753 -4.5000312e-09 -126.47689 -1.0635684e-08 -210.60335)
(574.78903 -2.3526315e-09 -145.32326 0 -299.75201 -4.909526e-09 -150.71114 -1.2658871e-08 -275.26029)
(737.00589 -2.3002474e-09 -169.49676 -2.263804e-11 -382.33015 -4.5559055e-09 -176.25554 -1.9381443e-08 -355.95144)
(932.13835 -1.2507778e-09 -192.04874 0 -480.69821 -6.1444385e-09 -200.289 -1.7740977e-08 -454.39191)
(1157.8201 -2.4421338e-09 -208.05469 0 -593.09505 -6.8248507e-09 -217.83266 -2.4226449e-08 -569.7843)
(1403.8314 -2.3042867e-09 -210.42098 0 -713.64465 -8.245474e-09 -221.7579 -2.8448278e-08 -697.30476)
(1648.879 -2.8109698e-09 -190.83218 0 -830.94341 -9.6608955e-09 -203.56548 -3.4112422e-08 -826.00627)
(1860.0357 -3.0761703e-09 -141.54346 0 -928.27526 -1.1117883e-08 -155.92782 -4.1359708e-08 -938.41737)
(1996.6228 -3.1987102e-09 -59.756925 0 -986.10666 -1.258146e-08 -75.687462 -4.2418375e-08 -1012.9047)
(2020.4688 -2.6613859e-09 50.697214 1.0206812e-10 -987.50621 -1.3205063e-08 33.161396 -4.7137381e-08 -1028.6729)
(1908.6992 -1.7006866e-09 175.51774 0 -924.42573 -1.4546885e-08 156.84551 -5.3010891e-08 -972.60435)
(1666.2906 -2.1937497e-09 291.65418 -2.8556485e-10 -803.09282 -1.5188481e-08 272.89504 -5.8421196e-08 -846.34629)
(1329.6993 -1.3408853e-09 373.92783 1.6460711e-10 -643.85113 -1.481464e-08 356.35867 -6.3188079e-08 -668.09012)
(957.75953 -7.4845042e-10 403.33469 0 -474.84163 -1.4832613e-08 388.15908 -6.8147512e-08 -468.44146)
(613.21216 -9.986897e-10 375.57483 0 -323.20541 -1.3723809e-08 362.76965 -7.0640921e-08 -283.00755)
(346.89763 -9.2047719e-10 301.99537 0 -206.45261 -1.2449934e-08 292.69652 -7.2621984e-08 -140.59581)
(174.35082 6.4881194e-10 210.69457 0 -129.76319 -1.0994463e-08 203.66004 -7.5371337e-08 -51.543011)
(23.72776 -1.5047542e-09 -8.7308338 0 -30.304012 -5.6877571e-10 -11.181437 -6.7709422e-09 -12.595727)
(58.76312 -2.2286596e-09 -30.246459 6.8745164e-12 -35.462098 3.7337217e-10 -30.631005 -5.6870441e-09 -17.510764)
(83.174235 1.3673538e-09 -53.743083 0 -48.73505 8.0752745e-10 -53.974357 -6.6597029e-09 -30.863747)
(119.37551 1.2948625e-09 -72.813869 0 -69.422738 -6.2594029e-10 -73.717903 -1.1223719e-08 -51.438312)
(172.39225 -7.6724818e-10 -89.319435 0 -96.379215 -5.0337739e-10 -91.033937 -6.7188132e-09 -76.758907)
(238.86863 -8.9763891e-10 -107.63097 -8.29736e-12 -130.11185 -7.1149862e-10 -109.96609 -6.5899e-09 -107.34656)
(319.96024 -1.8294418e-09 -129.9615 0 -172.55296 -6.5581024e-10 -132.86624 -8.6270523e-09 -145.88212)
(421.78268 -3.0575766e-09 -156.27597 0 -225.99342 -5.9071525e-10 -159.88293 -1.5312274e-08 -195.16576)
(550.70784 -3.5638458e-09 -185.97049 0 -292.68259 -6.1979802e-10 -190.42828 -1.7947638e-08 -258.18953)
(711.6758 -3.1883382e-09 -217.69665 0 -374.67497 -7.1860672e-10 -223.08885 -1.629772e-08 -338.1625)
(907.81938 -4.2756084e-09 -247.99341 0 -473.0137 -8.7353527e-10 -254.37013 -2.1730095e-08 -437.68577)
(1138.1841 -5.0083833e-09 -270.60257 0 -586.2502 -9.9508543e-10 -277.93879 -2.6235054e-08 -556.7968)
(1393.833 -6.157867e-09 -276.44095 0 -708.88162 -1.2488941e-09 -284.6905 -3.1740564e-08 -691.74212)
(1653.9963 -6.7642373e-09 -254.41478 4.0974509e-11 -829.69262 -1.0038755e-09 -263.36768 -3.6144611e-08 -831.88343)
(1884.766 -6.5630654e-09 -193.95811 0 -931.75713 -9.3938239e-10 -204.00653 -4.2981582e-08 -959.21266)
(2042.5503 -6.6484851e-09 -90.596022 -6.4025164e-11 -994.79719 -1.152453e-09 -101.84452 -5.0206071e-08 -1049.6921)
(2084.2988 -6.7889346e-09 51.648403 0 -1000.58 -1.0408377e-09 38.631849 -5.5818531e-08 -1078.7203)
(1980.7373 -6.2477344e-09 214.96616 0 -939.47898 -6.2829583e-10 200.07397 -6.2470639e-08 -1028.1865)
(1731.4201 -4.999973e-09 369.52035 -1.1257098e-10 -816.50172 -1.8996352e-10 353.34408 -6.8377697e-08 -896.09545)
(1370.955 -4.6959932e-09 481.70475 0 -651.68111 2.0540804e-10 465.41227 -7.262512e-08 -699.2031)
(961.63316 -3.8186147e-09 524.10476 1.5130731e-10 -474.19311 1.4847029e-09 509.03403 -7.8073527e-08 -470.13491)
(575.82525 -2.4671187e-09 487.28594 -8.6029154e-11 -313.7017 2.3899974e-09 473.83331 -8.0843302e-08 -252.71918)
(279.35095 -2.5532819e-09 386.06954 0 -190.66644 3.7173293e-09 375.42573 -8.2365324e-08 -88.724251)
(95.399197 -4.6244917e-10 264.50134 0 -111.44712 5.0389197e-09 257.86251 -8.3810623e-08 3.1318584)
(14.222226 4.1150611e-10 -11.017183 -2.9165961e-12 -25.424331 1.1586178e-09 -14.079379 -8.3608948e-09 1.4413133)
(38.466917 -1.177288e-09 -38.194557 -5.6366925e-12 -30.56736 9.9628541e-10 -38.495381 -5.7853588e-09 -3.2242091)
(63.05103 -1.9683035e-09 -67.376642 0 -43.986144 1.7535086e-09 -67.654328 -6.8648245e-09 -17.645792)
(102.03396 -6.8742331e-10 -89.906571 0 -64.804817 1.8301157e-09 -91.051498 -1.0759961e-08 -39.283375)
(155.4491 -9.2468371e-10 -108.44793 -6.2128806e-12 -91.481882 1.6347642e-09 -110.34873 -9.4999626e-09 -64.098641)
(219.40626 -2.6532684e-09 -129.51779 0 -124.53568 1.7259494e-09 -131.80301 -1.194281e-08 -93.09054)
(296.82692 -4.5925271e-09 -156.01709 0 -166.08438 2.0579282e-09 -158.5878 -1.309067e-08 -129.44913)
(395.05886 -5.3036062e-09 -187.75579 9.4023057e-12 -218.52224 3.046347e-09 -190.73949 -1.4006211e-08 -176.17501)
(520.84483 -3.3075892e-09 -224.23253 -1.1362501e-11 -284.27051 3.6899723e-09 -227.75552 -1.5774219e-08 -236.85874)
(679.91253 -4.5285879e-09 -264.10676 -1.3994274e-11 -365.64839 3.194193e-09 -268.19549 -1.9438353e-08 -315.5143)
(876.90777 -7.702887e-09 -303.32502 1.7490738e-11 -464.07251 4.1103234e-09 -307.9485 -2.3344017e-08 -415.73915)
(1112.5952 -8.3275225e-09 -334.40744 0 -578.47389 5.1453349e-09 -339.40536 -2.8075906e-08 -538.69623)
(1379.6696 -8.4616695e-09 -346.27185 0 -703.82607 6.0470439e-09 -351.47993 -3.4107367e-08 -682.23321)
(1658.2427 -9.4728613e-09 -324.5846 -3.5582591e-11 -829.09577 6.6005707e-09 -329.74442 -4.0217212e-08 -835.95484)
(1913.3743 -1.0765853e-08 -255.32327 0 -937.14003 7.8209603e-09 -260.97549 -4.7041262e-08 -981.35055)
(2097.965 -1.0913398e-08 -131.44815 0 -1006.7298 9.0014041e-09 -137.85659 -5.5921056e-08 -1091.9951)
(2162.936 -1.0105338e-08 43.790664 0 -1018.042 1.0096036e-08 35.597564 -6.264144e-08 -1138.9551)
(2070.9714 -9.1957057e-09 249.62373 0 -959.40211 1.1025198e-08 238.85077 -6.9285544e-08 -1097.3031)
(1814.5886 -8.1296303e-09 448.87967 0 -834.3493 1.2025871e-08 435.50772 -7.4864345e-08 -959.99142)
(1425.2398 -6.968055e-09 598.41648 0 -662.51548 1.3041806e-08 583.20957 -7.8272816e-08 -740.94679)
(968.14881 -5.3998664e-09 659.52667 6.9233996e-11 -474.19028 1.4244895e-08 643.62806 -7.8419483e-08 -473.83564)
(527.69702 -3.2956901e-09 612.55282 0 -302.2648 1.5272395e-08 596.70983 -7.6062654e-08 -212.55446)
(194.54637 -2.7548538e-09 473.4841 -1.8084333e-10 -171.62049 1.6117662e-08 458.90254 -7.1827856e-08 -22.013882)
(3.5732483 -1.0984035e-09 319.27646 1.0278522e-10 -90.93455 1.7090453e-08 310.63888 -6.7486411e-08 59.923583)
(3.5325443 7.8230168e-10 -12.908757 0 -19.983715 2.387937e-09 -16.44644 -6.1544968e-12 17.05116)
(15.666669 -7.953793e-10 -45.83604 2.7470452e-12 -25.06748 2.0831187e-09 -45.895223 2.5698147e-10 13.185124)
(41.00816 -2.0123727e-09 -80.623454 0 -38.820652 2.7500137e-09 -81.013342 3.7349935e-09 -3.5438225)
(84.133855 1.3017423e-09 -105.44298 -2.8242001e-12 -59.952245 3.1150927e-09 -106.9933 6.5038e-09 -26.995826)
(138.50214 1.4113727e-09 -124.54464 6.0936042e-12 -86.380952 2.7527857e-09 -126.73748 5.7240974e-09 -51.207453)
(199.53392 5.2286794e-10 -147.32931 6.8127909e-12 -118.7553 3.3306032e-09 -149.64028 6.7762473e-09 -78.534145)
(272.75891 1.8521296e-09 -177.03059 -3.9283917e-12 -159.38866 3.7142944e-09 -179.40405 8.1140504e-09 -112.45991)
(366.88808 2.8420443e-09 -213.27663 0 -210.76287 4.1320154e-09 -215.89265 1.0876954e-08 -156.14024)
(488.87866 3.5114681e-09 -255.89069 0 -275.50068 4.6714154e-09 -258.84389 1.3728258e-08 -213.84138)
(645.32148 3.5022534e-09 -303.66776 0 -356.21564 5.4890285e-09 -306.88071 1.4640199e-08 -290.49284)
(842.48449 3.793779e-09 -352.14382 0 -454.70333 6.5487782e-09 -355.46392 1.6760536e-08 -390.79247)
(1082.9684 4.3947123e-09 -392.90904 0 -570.31432 7.8441606e-09 -396.01218 1.9995025e-08 -516.97519)
(1361.4344 4.2755031e-09 -413.09317 0 -698.59556 9.3519208e-09 -415.65933 2.1221762e-08 -669.13809)
(1659.3615 4.6799054e-09 -394.75455 0 -828.66036 1.1049914e-08 -396.41417 2.4606678e-08 -836.94285)
(1940.9178 3.8707918e-09 -320.31123 0 -943.15754 1.289419e-08 -321.66234 2.569642e-08 -1001.7404)
(2155.544 3.8808066e-09 -179.46924 5.6726226e-11 -1019.9369 1.5011177e-08 -180.92358 2.824465e-08 -1134.9108)
(2247.7711 3.5794229e-09 26.60276 0 -1037.5241 1.6703599e-08 23.51108 2.9573729e-08 -1203.1883)
(2171.1306 2.7601005e-09 275.37639 0 -981.88865 1.8427354e-08 269.0363 3.1688113e-08 -1173.8148)
(1909.7201 2.6832753e-09 522.63874 0 -854.87381 1.9856777e-08 512.33811 3.4424231e-08 -1034.1668)
(1490.1323 2.2456839e-09 715.82388 -6.096023e-11 -675.43768 2.0703618e-08 701.77108 3.7544067e-08 -792.86513)
(978.12162 2.332127e-09 802.66102 7.1080724e-11 -474.75439 2.1319775e-08 785.51499 4.2419857e-08 -481.30654)
(470.2502 2.3191005e-09 745.336 -8.1881719e-11 -289.26221 2.115363e-08 725.8185 4.991112e-08 -162.87432)
(97.455817 1.120464e-09 553.61164 -9.3590208e-11 -150.25608 2.0850144e-08 532.52576 5.7768588e-08 58.052438)
(-88.386267 5.8230466e-10 370.01771 1.0678778e-10 -70.812404 2.0612544e-08 357.18417 6.6751418e-08 101.7791)
(-6.9303546 5.9913962e-10 -14.025141 3.2201204e-12 -14.806255 1.1783628e-09 -17.790048 2.0364159e-08 31.884085)
(-6.6774577 1.2677899e-09 -52.652723 0 -19.720638 9.6498177e-10 -52.278067 2.0132365e-08 30.080648)
(20.108687 3.4294757e-09 -92.944526 -3.0867389e-12 -34.037702 7.805591e-10 -93.608847 2.168328e-08 9.1191841)
(68.535174 4.796663e-09 -118.45568 -3.1986369e-12 -55.615346 3.0986795e-10 -120.65699 2.3152415e-08 -16.505785)
(124.17312 5.5295903e-09 -136.7372 0 -81.816459 2.9877275e-10 -139.39128 2.5164432e-08 -39.927227)
(182.08034 7.1770136e-09 -160.33959 0 -113.58752 2.6674222e-10 -162.85874 2.6813748e-08 -65.789565)
(251.1645 9.504807e-09 -192.07036 0 -153.37304 2.6776515e-10 -194.52546 3.1975379e-08 -97.24633)
(341.24615 1.2121541e-08 -231.54468 0 -203.72473 3.5975903e-10 -234.14479 3.6789902e-08 -137.6774)
(459.26335 1.5697493e-08 -279.1164 -6.4147317e-12 -267.46755 2.7904083e-10 -281.88065 4.3390565e-08 -192.13889)
(612.60724 1.8200644e-08 -333.76723 -7.9228262e-12 -347.4987 2.3768479e-11 -336.52938 5.2376494e-08 -266.27683)
(809.06113 2.0008697e-08 -390.76005 0 -445.97654 3.8710662e-10 -393.29844 6.1207972e-08 -365.92715)
(1052.9895 2.2302457e-08 -441.05121 0 -562.61272 6.5924238e-10 -442.88845 7.1101961e-08 -493.95307)
(1341.1773 2.5882561e-08 -470.55234 1.5965824e-11 -693.59386 1.3251634e-09 -471.15947 8.5079664e-08 -653.37169)
(1656.8764 2.8015106e-08 -457.64808 -4.0607545e-11 -828.12825 1.4111122e-09 -456.45643 1.0027123e-07 -833.57584)