/*--------------------------------*- C++ -*----------------------------------*\
| =========                 |                                                 |
| \\      /  F ield         | OpenFOAM: The Open Source CFD Toolbox           |
|  \\    /   O peration     | Version:  v1912                                 |
|   \\  /    A nd           | Website:  www.openfoam.com                      |
|    \\/     M anipulation  |                                                 |
\*---------------------------------------------------------------------------*/
FoamFile
{
    version     2.0;
    format      ascii;
    class       surfaceScalarField;
    location    "60000";
    object      phi;
}
// * * * * * * * * * * * * * * * * * * * * * * * * * * * * * * * * * * * * * //

dimensions      [0 3 -1 0 0 0 0];
oriented        oriented;


internalField   nonuniform List<scalar> 
8881
(
7.6601024e-08
-7.8381306e-09
8.6583069e-08
-1.0021293e-08
9.7364502e-08
-1.0721033e-08
1.0842637e-07
-1.1021568e-08
1.198278e-07
-1.1383654e-08
1.315619e-07
-1.1720533e-08
1.4356539e-07
-1.1998245e-08
1.557678e-07
-1.2192995e-08
1.6809787e-07
-1.2326252e-08
1.8052773e-07
-1.2423736e-08
1.9314868e-07
-1.2618234e-08
2.0621343e-07
-1.3063792e-08
2.2013315e-07
-1.3916672e-08
2.354455e-07
-1.5312836e-08
2.5287004e-07
-1.7420064e-08
2.7290082e-07
-2.002545e-08
2.9603997e-07
-2.3137246e-08
3.2253776e-07
-2.6487432e-08
3.5238529e-07
-2.9858904e-08
3.853904e-07
-3.3006931e-08
4.2129089e-07
-3.5926238e-08
4.5980837e-07
-3.8529971e-08
4.9851012e-07
-3.8717702e-08
-3.5723155e-08
5.3422975e-07
4.3906864e-07
-4.8544818e-08
4.9024193e-07
-6.117048e-08
5.4415916e-07
-6.4609057e-08
5.9833388e-07
-6.51872e-08
6.5320618e-07
-6.6254804e-08
7.0889246e-07
-6.741247e-08
7.652169e-07
-6.8330072e-08
8.2190264e-07
-6.8893729e-08
8.7861267e-07
-6.9054843e-08
9.3518672e-07
-6.9022325e-08
9.9203764e-07
-6.9498171e-08
1.0503378e-06
-7.1388536e-08
1.1120074e-06
-7.5612338e-08
1.1795469e-06
-8.2856547e-08
1.2563227e-06
-9.4194476e-08
1.3445879e-06
-1.0825855e-07
1.446667e-06
-1.251754e-07
1.5637151e-06
-1.4348163e-07
1.6957174e-06
-1.6180673e-07
1.8418502e-06
-1.7910512e-07
2.0010151e-06
-1.950679e-07
2.1720483e-06
-2.095629e-07
2.3436778e-06
-2.103505e-07
-1.9330944e-07
2.5012624e-06
1.4800177e-06
-1.705185e-07
1.6312236e-06
-2.1260719e-07
1.7856212e-06
-2.1900866e-07
1.9361407e-06
-2.1565297e-07
2.0850489e-06
-2.151128e-07
2.233405e-06
-2.1575298e-07
2.3811836e-06
-2.1608774e-07
2.5278619e-06
-2.1557161e-07
2.6725806e-06
-2.1376109e-07
2.8148676e-06
-2.1131065e-07
2.955795e-06
-2.1042226e-07
3.0984564e-06
-2.1404878e-07
3.247909e-06
-2.2506717e-07
3.4106932e-06
-2.4563258e-07
3.5956887e-06
-2.7918285e-07
3.8086382e-06
-3.2119626e-07
4.0556341e-06
-3.7214351e-07
4.33973e-06
-4.2758122e-07
4.6610344e-06
-4.8308418e-07
5.0176791e-06
-5.3578671e-07
5.4072183e-06
-5.8460628e-07
5.8270694e-06
-6.294484e-07
6.2477367e-06
-6.3102012e-07
-5.7663662e-07
6.6310494e-06
4.17144e-06
-4.7161633e-07
4.539142e-06
-5.805304e-07
4.9002516e-06
-5.8019707e-07
5.2388268e-06
-5.5422364e-07
5.5635497e-06
-5.3982596e-07
5.8791965e-06
-5.3139231e-07
6.1871934e-06
-5.2409439e-07
6.4871833e-06
-5.1557637e-07
6.7774926e-06
-5.0409431e-07
7.0570525e-06
-4.9090175e-07
7.3281595e-06
-4.8156021e-07
7.5975085e-06
-4.8343205e-07
7.8759533e-06
-5.035333e-07
8.1774273e-06
-5.4711488e-07
8.5210571e-06
-6.2279908e-07
8.9187089e-06
-7.1880738e-07
9.383447e-06
-8.3683078e-07
9.9219366e-06
-9.6600241e-07
1.0534825e-05
-1.0959321e-06
1.1218945e-05
-1.2198657e-06
1.1970195e-05
-1.3358578e-06
1.2784333e-05
-1.443574e-06
1.3598585e-05
-1.4452882e-06
-1.3102844e-06
1.4332237e-05
1.0488637e-05
-1.1246282e-06
1.1272927e-05
-1.3653308e-06
1.2006467e-05
-1.3140006e-06
1.2659697e-05
-1.2075073e-06
1.32602e-05
-1.1403154e-06
1.3823909e-05
-1.0950812e-06
1.4357823e-05
-1.0580012e-06
1.4863683e-05
-1.0214398e-06
1.5339133e-05
-9.7955174e-07
1.578229e-05
-9.3407306e-07
1.6197649e-05
-8.9693159e-07
1.6597956e-05
-8.8375408e-07
1.7003502e-05
-9.0908382e-07
1.7440029e-05
-9.8363931e-07
1.7943439e-05
-1.1261913e-06
1.8534829e-05
-1.3101658e-06
1.9238729e-05
-1.5406895e-06
2.0067998e-05
-1.7952346e-06
2.102497e-05
-2.0528796e-06
2.2105765e-05
-2.3006549e-06
2.330549e-05
-2.5355858e-06
2.4619321e-05
-2.7574091e-06
2.5931e-05
-2.7569731e-06
-2.4715259e-06
2.7092238e-05
2.3694151e-05
-2.3718925e-06
2.5166315e-05
-2.8382218e-06
2.6460626e-05
-2.608758e-06
2.7535114e-05
-2.2821692e-06
2.84646e-05
-2.0698244e-06
2.9291852e-05
-1.9223264e-06
3.0039018e-05
-1.8051585e-06
3.0715341e-05
-1.6977697e-06
3.1319245e-05
-1.5834709e-06
3.1848293e-05
-1.4631412e-06
3.2310524e-05
-1.3591853e-06
3.2727272e-05
-1.3005235e-06
3.3131566e-05
-1.3133882e-06
3.3564686e-05
-1.4167595e-06
3.4085853e-05
-1.647333e-06
3.472751e-05
-1.9517861e-06
3.5530705e-05
-2.3438329e-06
3.6517943e-05
-2.782433e-06
3.7695846e-05
-3.2307558e-06
3.9062603e-05
-3.6674149e-06
4.0616207e-05
-4.089189e-06
4.2355505e-05
-4.4967278e-06
4.409034e-05
-4.4918138e-06
-3.9615361e-06
4.5580335e-05
4.7323802e-05
-4.4086221e-06
4.9690514e-05
-5.205987e-06
5.1610492e-05
-4.5294662e-06
5.3053224e-05
-3.7252309e-06
5.418968e-05
-3.2063833e-06
5.511194e-05
-2.8445887e-06
5.5872305e-05
-2.5655234e-06
5.6497111e-05
-2.3225743e-06
5.6988517e-05
-2.0748954e-06
5.7344186e-05
-1.818824e-06
5.7576348e-05
-1.5913699e-06
5.7715014e-05
-1.4392054e-06
5.7805136e-05
-1.4035166e-06
5.7902099e-05
-1.513716e-06
5.8089961e-05
-1.8351706e-06
5.8410623e-05
-2.2724014e-06
5.892478e-05
-2.8579552e-06
5.9667998e-05
-3.5255925e-06
6.065583e-05
-4.2185941e-06
6.1895035e-05
-4.9065877e-06
6.3394891e-05
-5.5890704e-06
6.516786e-05
-6.2696881e-06
6.6940298e-05
-6.2642731e-06
-5.3910039e-06
6.8369776e-05
8.1436823e-05
-7.0888026e-06
8.4524574e-05
-8.2953977e-06
8.6760748e-05
-6.7667447e-06
8.8197074e-05
-5.1620784e-06
8.9149893e-05
-4.159363e-06
8.9769737e-05
-3.4644573e-06
9.0149377e-05
-2.9451499e-06
9.033924e-05
-2.51244e-06
9.0345598e-05
-2.0812511e-06
9.0165151e-05
-1.6383883e-06
8.9810975e-05
-1.2371943e-06
8.9314715e-05
-9.4294716e-07
8.8722743e-05
-8.1153426e-07
8.8091737e-05
-8.8268853e-07
8.7519529e-05
-1.2629296e-06
8.7048379e-05
-1.8012213e-06
8.6755684e-05
-2.5652258e-06
8.6691181e-05
-3.4611024e-06
8.6885401e-05
-4.4128274e-06
8.7363796e-05
-5.3850525e-06
8.8160284e-05
-6.3856003e-06
8.9317408e-05
-7.4268804e-06
9.0493567e-05
-7.4404892e-06
-6.1624737e-06
9.1265011e-05
0.00011788334
-9.6527969e-06
0.00012087132
-1.1285369e-05
0.00012263759
-8.5344087e-06
0.00012343344
-5.9586232e-06
0.00012370182
-4.4279833e-06
0.00012361007
-3.3727522e-06
0.00012327933
-2.6144129e-06
0.00012277327
-2.0063734e-06
0.00012209327
-1.4012579e-06
0.00012123124
-7.7636612e-07
0.00012019443
-2.0039407e-07
0.00011899424
2.5722151e-07
0.00011765966
5.2305677e-07
0.00011622699
5.4996927e-07
0.0001147857
1.7840703e-07
0.00011335655
-3.7205837e-07
0.000112021
-1.2296378e-06
0.00011083903
-2.2791201e-06
0.00010985893
-3.4327356e-06
0.00010913301
-4.6591324e-06
0.00010873121
-5.9838244e-06
0.00010874418
-7.4398963e-06
0.0001088098
-7.5061061e-06
-5.836048e-06
0.00010848337
0.00014199086
-1.101792e-05
0.00014373064
-1.3028037e-05
0.00014419166
-8.9971766e-06
0.00014391004
-5.6777954e-06
0.0001432964
-3.8145747e-06
0.00014244825
-2.5246287e-06
0.00014148169
-1.6478163e-06
0.00014044112
-9.6578669e-07
0.00013931674
-2.76848e-07
0.00013808684
4.5357191e-07
0.00013674199
1.1444599e-06
0.00013526487
1.7344135e-06
0.00013365403
2.133879e-06
0.00013190058
2.3035213e-06
0.00013005822
2.0207313e-06
0.00012811173
1.5745085e-06
0.0001261263
7.5571983e-07
0.00012415179
-3.0464066e-07
0.00012224841
-1.5294523e-06
0.00012049143
-2.9023117e-06
0.00011898206
-4.4745533e-06
0.00011786371
-6.3217254e-06
0.00011682325
-6.465772e-06
-4.5016392e-06
0.00011548877
0.0001435363
-1.0643215e-05
0.00014341763
-1.2911632e-05
0.00014240158
-7.9827299e-06
0.00014122786
-4.504797e-06
0.00014003865
-2.6256204e-06
0.00013882593
-1.3119437e-06
0.00013766759
-4.8948061e-07
0.00013656177
1.4004216e-07
0.00013548259
8.0233445e-07
0.00013441027
1.5258586e-06
0.00013332423
2.2305132e-06
0.00013218083
2.8777494e-06
0.0001309564
3.3583637e-06
0.00012958909
3.6707396e-06
0.00012808481
3.525105e-06
0.00012639296
3.2662946e-06
0.00012454775
2.6010106e-06
0.00012256812
1.6749758e-06
0.00012050355
5.3511713e-07
0.00011843007
-8.2878743e-07
0.000116454
-2.4985166e-06
0.00011474574
-4.6134371e-06
0.0001131073
-4.8273538e-06
-2.739237e-06
0.00011134499
0.00012493023
-8.9513685e-06
0.00012328808
-1.1272932e-05
0.00012141464
-6.1107785e-06
0.00011995617
-3.046948e-06
0.00011870577
-1.3753056e-06
0.00011761647
-2.2263589e-07
0.00011669261
4.3444232e-07
0.0001158916
9.4111207e-07
0.0001151934
1.5005755e-06
0.00011459329
2.1260831e-06
0.00011407749
2.7462935e-06
0.00011358203
3.3733832e-06
0.00011308592
3.8543848e-06
0.00011249299
4.2638822e-06
0.00011177821
4.2397301e-06
0.00011086351
4.1811633e-06
0.00010975041
3.7139193e-06
0.00010842211
3.0032911e-06
0.00010690288
2.0541467e-06
0.00010523843
8.3545454e-07
0.00010350134
-7.6156899e-07
0.0001018423
-2.9547173e-06
0.00010021205
-3.1972736e-06
-1.2046454e-06
9.8677197e-05
9.6839961e-05
-6.8225703e-06
9.4508311e-05
-8.943258e-06
9.2599747e-05
-4.2034637e-06
9.1348901e-05
-1.7965911e-06
9.0385419e-05
-4.1199898e-07
8.9672832e-05
4.8993302e-07
8.9142334e-05
9.6492686e-07
8.8741704e-05
1.3417193e-06
8.8475888e-05
1.7663878e-06
8.8347015e-05
2.2548858e-06
8.835472e-05
2.738609e-06
8.8433829e-05
3.2941581e-06
8.8585166e-05
3.7031171e-06
8.8702026e-05
4.1468892e-06
8.8753677e-05
4.1882011e-06
8.8653169e-05
4.2815808e-06
8.8380753e-05
3.9864649e-06
8.788703e-05
3.4970025e-06
8.7173457e-05
2.7677902e-06
8.6249628e-05
1.7593585e-06
8.5125741e-05
3.6235302e-07
8.3889586e-05
-1.7184519e-06
8.263197e-05
-1.9396466e-06
-2.6886819e-07
8.1696424e-05
6.9086901e-05
-4.9254833e-06
6.6800541e-05
-6.660116e-06
6.5337881e-05
-2.7416327e-06
6.4463871e-05
-9.2293746e-07
6.3876468e-05
1.7544901e-07
6.3535622e-05
8.3084252e-07
6.3344655e-05
1.1559595e-06
6.3264454e-05
1.4220347e-06
6.3308816e-05
1.7220262e-06
6.3486861e-05
2.0770361e-06
6.3811411e-05
2.4139722e-06
6.422577e-05
2.8800719e-06
6.4753779e-05
3.1749229e-06
6.5297341e-05
3.6036415e-06
6.5835786e-05
3.6494959e-06
6.6288592e-05
3.8290472e-06
6.6628752e-05
3.6460053e-06
6.6790188e-05
3.3356881e-06
6.6756127e-05
2.8015457e-06
6.6511648e-05
2.0036986e-06
6.6017035e-05
8.5675224e-07
6.5271211e-05
-9.7301657e-07
6.446827e-05
-1.1369292e-06
4.042535e-08
6.415847e-05
4.6589786e-05
-3.5166633e-06
4.4739363e-05
-4.8114665e-06
4.380018e-05
-1.8032649e-06
4.327116e-05
-3.9420134e-07
4.29878e-05
4.5868552e-07
4.2905977e-05
9.1266094e-07
4.2931175e-05
1.1307177e-06
4.303958e-05
1.3135781e-06
4.3246867e-05
1.5147121e-06
4.3565004e-05
1.7587783e-06
4.4012487e-05
1.9665094e-06
4.454683e-05
2.3455401e-06
4.5203209e-05
2.518649e-06
4.5903836e-05
2.9028027e-06
4.663955e-05
2.9139774e-06
4.73454e-05
3.1230595e-06
4.7995152e-05
2.9964704e-06
4.8522057e-05
2.8087884e-06
4.8900055e-05
2.4236953e-06
4.9100195e-05
1.8036942e-06
4.906205e-05
8.9499672e-07
4.8710762e-05
-6.2151054e-07
4.8287204e-05
-7.1330757e-07
-1.0070879e-07
4.8428747e-05
3.0283731e-05
-2.5820917e-06
2.8965312e-05
-3.4955905e-06
2.8432683e-05
-1.2709636e-06
2.8154429e-05
-1.1610112e-07
2.8064157e-05
5.4905407e-07
2.8122503e-05
8.5444178e-07
2.8251016e-05
1.0022229e-06
2.8438284e-05
1.1264864e-06
2.8697239e-05
1.2556883e-06
2.9045095e-05
1.4111767e-06
2.9488399e-05
1.5230401e-06
3.0017124e-05
1.8171313e-06
3.0643279e-05
1.8922457e-06
3.1337115e-05
2.2093187e-06
3.20723e-05
2.1784936e-06
3.2823181e-05
2.3725218e-06
3.3550191e-05
2.2691292e-06
3.4205906e-05
2.15333e-06
3.4759192e-05
1.8700522e-06
3.5171951e-05
1.3909464e-06
3.5386539e-05
6.8011912e-07
3.5283603e-05
-5.1889741e-07
3.5094469e-05
-5.244477e-07
-4.4561133e-07
3.5438765e-05
1.923882e-05
-2.0174948e-06
1.8397236e-05
-2.655403e-06
1.8120438e-05
-9.9461499e-07
1.7979696e-05
2.4524468e-08
1.796488e-05
5.6377356e-07
1.8046704e-05
7.7265027e-07
1.8178193e-05
8.7065464e-07
1.8361111e-05
9.435303e-07
1.8607219e-05
1.0095203e-06
1.8928102e-05
1.0901634e-06
1.9315116e-05
1.1360332e-06
1.9793157e-05
1.338862e-06
2.0321028e-05
1.3644964e-06
2.0942593e-05
1.5874892e-06
2.1577662e-05
1.5436592e-06
2.2264532e-05
1.6854945e-06
2.2931806e-05
1.6021089e-06
2.3557193e-05
1.5279912e-06
2.4111707e-05
1.3156992e-06
2.4537057e-05
9.6580233e-07
2.4781237e-05
4.3602649e-07
2.4719406e-05
-4.5678775e-07
2.4529625e-05
-3.3459996e-07
-7.4374385e-07
2.4828202e-05
1.2061954e-05
-1.7051974e-06
1.1516824e-05
-2.1119391e-06
1.1253232e-05
-7.3106874e-07
1.103579e-05
2.4197756e-07
1.0961984e-05
6.3763451e-07
1.1031878e-05
7.0289629e-07
1.1195993e-05
7.0649701e-07
1.1421051e-05
7.1862776e-07
1.1692e-05
7.3846659e-07
1.1995471e-05
7.8688173e-07
1.2331262e-05
8.000904e-07
1.2739394e-05
9.3094134e-07
1.3158135e-05
9.4558119e-07
1.3668329e-05
1.0775321e-06
1.4164666e-05
1.0471469e-06
1.471796e-05
1.1324785e-06
1.5236289e-05
1.0835859e-06
1.5726283e-05
1.0382906e-06
1.6148808e-05
8.9292345e-07
1.6459893e-05
6.5487097e-07
1.6619726e-05
2.7594009e-07
1.6510614e-05
-3.4779537e-07
1.6307394e-05
-1.3161884e-07
-9.3402044e-07
1.6497284e-05
7.3988193e-06
-1.4536848e-06
6.8193394e-06
-1.5334039e-06
6.3709966e-06
-2.828439e-07
6.1702933e-06
4.4272957e-07
6.2635789e-06
5.4427226e-07
6.4680495e-06
4.9849041e-07
6.694069e-06
4.8037439e-07
6.9266698e-06
4.8602159e-07
7.1683099e-06
4.9674213e-07
7.4142167e-06
5.4087824e-07
7.6733801e-06
5.4091526e-07
7.9835236e-06
6.2059917e-07
8.2965495e-06
6.3265916e-07
8.6723388e-06
7.0150648e-07
9.0309434e-06
6.8875669e-07
9.4287323e-06
7.3456667e-07
9.7949741e-06
7.175744e-07
1.0147353e-05
6.8600098e-07
1.0446577e-05
5.9382712e-07
1.0666718e-05
4.3498195e-07
1.0768673e-05
1.7400252e-07
1.0651922e-05
-2.307322e-07
1.0539254e-05
-1.8936658e-08
-8.1551506e-07
1.0421169e-05
4.1814072e-06
-1.0486384e-06
3.5242552e-06
-8.771972e-07
3.2160268e-06
2.5442773e-08
3.2812689e-06
3.7757368e-07
3.4879991e-06
3.3753321e-07
3.6932608e-06
2.9333075e-07
3.8830931e-06
2.9046728e-07
4.0686787e-06
3.0051256e-07
4.2498855e-06
3.1544618e-07
4.4381864e-06
3.5262885e-07
4.6304724e-06
3.4855708e-07
4.8557662e-06
3.9532988e-07
5.0848179e-06
4.0357211e-07
5.3466282e-06
4.3971923e-07
5.6003665e-06
4.3502458e-07
5.8729621e-06
4.6204632e-07
6.1313059e-06
4.5923661e-07
6.3794595e-06
4.380002e-07
6.5927147e-06
3.8051502e-07
6.7484852e-06
2.7937784e-07
6.8113756e-06
1.1099766e-07
6.7172367e-06
-1.3650859e-07
6.6835098e-06
1.4683672e-08
-4.8342454e-07
6.3514206e-06
2.0036619e-06
-5.4141221e-07
1.5119301e-06
-3.8601958e-07
1.4707211e-06
6.6708623e-08
1.6523036e-06
1.9611357e-07
1.8309549e-06
1.5882547e-07
1.9818633e-06
1.4251513e-07
2.122197e-06
1.5002192e-07
2.2605941e-06
1.6214184e-07
2.3941136e-06
1.8183114e-07
2.5386979e-06
2.0798843e-07
2.6822068e-06
2.0502141e-07
2.8454761e-06
2.3192483e-07
3.0106558e-06
2.3846556e-07
3.190961e-06
2.5925649e-07
3.3680551e-06
2.5808822e-07
3.5528085e-06
2.7722311e-07
3.7333969e-06
2.7880867e-07
3.9068461e-06
2.6463103e-07
4.0572693e-06
2.3016612e-07
4.1671277e-06
1.6971564e-07
4.2083809e-06
6.9722146e-08
4.1440312e-06
-7.1923432e-08
4.1425545e-06
1.6143549e-08
-1.547994e-07
3.814241e-06
7.8988077e-07
-1.8024906e-07
5.2764713e-07
-1.2415805e-07
5.6809009e-07
2.6333244e-08
7.0133509e-07
6.2985275e-08
8.0908044e-07
5.1035413e-08
9.0385481e-07
4.7830524e-08
1.0004145e-06
5.3358798e-08
1.1012791e-06
6.1312272e-08
1.207464e-06
7.5548909e-08
1.3245189e-06
9.089332e-08
1.4364324e-06
9.3069337e-08
1.5592128e-06
1.0902472e-07
1.6806701e-06
1.1707216e-07
1.8061885e-06
1.3359911e-07
1.9268048e-06
1.3761952e-07
2.0523628e-06
1.5162173e-07
2.1778405e-06
1.5346801e-07
2.2982797e-06
1.4429138e-07
2.4033438e-06
1.2514581e-07
2.4805785e-06
9.2675318e-08
2.5101225e-06
4.0126157e-08
2.4705537e-06
-3.2147948e-08
2.4760936e-06
1.0558724e-08
5.909133e-08
2.2624508e-06
2.4984807e-07
-3.0948904e-08
1.4701096e-07
-2.149819e-08
1.6834282e-07
5.0351655e-09
2.2068346e-07
1.0706193e-08
2.6294438e-07
8.7505948e-09
3.0244493e-07
8.378902e-09
3.4627613e-07
9.4696309e-09
3.9657114e-07
1.1037621e-08
4.5831401e-07
1.3747218e-08
5.3220208e-07
1.6979441e-08
6.0673664e-07
1.8508636e-08
6.9194566e-07
2.3731605e-08
7.795822e-07
2.9483408e-08
8.7217073e-07
4.0903475e-08
9.6118225e-07
4.8729611e-08
1.05443e-06
5.8336991e-08
1.1472185e-06
6.0805491e-08
1.2336652e-06
5.793983e-08
1.3084588e-06
5.0396445e-08
1.3636201e-06
3.7716498e-08
1.386308e-06
1.7381719e-08
1.3642298e-06
-9.8398661e-09
1.3706955e-06
4.0412037e-09
1.2086705e-07
1.3092e-06
4.5870585e-08
2.4372394e-08
2.9407559e-08
4.0113753e-08
4.8864347e-08
5.7243249e-08
6.671288e-08
7.77505e-08
9.1497718e-08
1.0847716e-07
1.269858e-07
1.507174e-07
1.8020081e-07
2.2110428e-07
2.698339e-07
3.2817089e-07
3.8897638e-07
4.4691621e-07
4.9731266e-07
5.3502915e-07
5.5241088e-07
5.4257101e-07
5.4661223e-07
6.6747942e-07
2.5086666e-07
1.0930577e-06
1.1525838e-07
1.3561326e-07
1.0973406e-07
5.5275897e-09
1.2301549e-07
-1.3279109e-08
1.5308377e-07
-3.005424e-08
2.1944644e-07
-6.6349509e-08
2.168017e-07
2.7900153e-09
4.5571438e-08
1.7121766e-07
6.6951838e-08
-2.1077074e-08
1.2769707e-07
-6.0167971e-08
1.8886656e-07
-6.1218394e-08
2.8846766e-07
-1.002819e-07
4.0960578e-07
-1.2089038e-07
7.5806549e-07
-3.4858175e-07
-8.122651e-07
1.5703533e-06
6.9100226e-07
1.9106239e-06
4.2595801e-07
4.0064556e-07
3.9594959e-07
3.5542598e-08
4.3949585e-07
-5.6862181e-08
5.3605236e-07
-1.2654564e-07
7.541773e-07
-2.8454273e-07
7.7441226e-07
-1.6956425e-08
2.5689836e-07
6.8787681e-07
2.7431517e-07
-3.8293786e-08
4.3527314e-07
-2.227752e-07
5.8457643e-07
-2.0672374e-07
7.7509165e-07
-2.8552515e-07
9.5591796e-07
-3.0535473e-07
1.4793995e-06
-8.7214693e-07
-1.3124023e-06
1.9796665e-06
1.2794756e-06
2.4874389e-06
9.5775726e-07
7.223665e-07
8.9094511e-07
1.0233943e-07
9.6742873e-07
-1.3332566e-07
1.1436427e-06
-3.0276548e-07
1.5457235e-06
-6.8655735e-07
1.6383353e-06
-1.0947757e-07
7.2495966e-07
1.6014732e-06
6.541061e-07
3.2560122e-08
8.6625399e-07
-4.3404595e-07
1.0784386e-06
-4.2065768e-07
1.3169423e-06
-5.2638565e-07
1.5417015e-06
-5.279961e-07
2.0612659e-06
-1.3915616e-06
-1.6239824e-06
2.3729035e-06
2.134271e-06
2.7841061e-06
1.8569054e-06
9.9973031e-07
1.7711265e-06
1.8815515e-07
1.8642747e-06
-2.265216e-07
2.1061966e-06
-5.4459295e-07
2.6872147e-06
-1.2676786e-06
2.8833081e-06
-3.0501145e-07
1.5053917e-06
2.9784603e-06
1.2333021e-06
3.049522e-07
1.417238e-06
-6.1886127e-07
1.6628389e-06
-6.626215e-07
1.9442021e-06
-8.0306209e-07
2.1967236e-06
-7.8433726e-07
2.7683401e-06
-1.9634613e-06
-1.8675155e-06
3.0119159e-06
3.3158711e-06
2.7737238e-06
3.2149105e-06
1.1006869e-06
3.201162e-06
2.0185794e-07
3.3222464e-06
-3.4756625e-07
3.6125523e-06
-8.3497157e-07
4.353624e-06
-2.008643e-06
4.665606e-06
-6.1736088e-07
2.6687995e-06
4.9758074e-06
2.099099e-06
8.741357e-07
2.1814025e-06
-7.005529e-07
2.4351612e-06
-9.1894344e-07
2.764279e-06
-1.133579e-06
3.0677246e-06
-1.0862998e-06
3.650561e-06
-2.5460981e-06
-2.2075251e-06
3.9906304e-06
4.858246e-06
2.5082717e-06
4.9926103e-06
9.663624e-07
5.1597648e-06
3.4772116e-08
5.3985327e-06
-5.8636832e-07
5.7662732e-06
-1.2025832e-06
6.6718204e-06
-2.9142783e-06
7.191351e-06
-1.1359826e-06
4.4007188e-06
7.7655435e-06
3.4607161e-06
1.8151714e-06
3.3376131e-06
-5.7755075e-07
3.5472833e-06
-1.1252266e-06
3.9177631e-06
-1.5018286e-06
4.2913911e-06
-1.4630014e-06
4.8274119e-06
-3.0825743e-06
-2.6663508e-06
5.286222e-06
6.8971058e-06
2.0739958e-06
7.1997277e-06
6.6374648e-07
7.5440559e-06
-3.0954734e-07
7.9470828e-06
-9.8937033e-07
8.4468095e-06
-1.7023726e-06
9.5842027e-06
-4.0516627e-06
1.0491962e-05
-2.0443264e-06
6.9039501e-06
1.135433e-05
5.6165445e-06
3.1020532e-06
5.1666654e-06
-1.2645423e-07
5.2383569e-06
-1.1986823e-06
5.605258e-06
-1.8699043e-06
6.055974e-06
-1.9128096e-06
6.4280161e-06
-3.4545562e-06
-3.0999361e-06
6.861609e-06
9.7491448e-06
1.4957168e-06
1.016498e-05
2.4792772e-07
1.065472e-05
-7.9927759e-07
1.1221344e-05
-1.5560015e-06
1.1905746e-05
-2.3866865e-06
1.3352596e-05
-5.4985046e-06
1.4747448e-05
-3.4382784e-06
1.038058e-05
1.5720431e-05
8.7969994e-06
4.6863836e-06
7.9931994e-06
6.7672854e-07
7.8250682e-06
-1.0287826e-06
8.0989676e-06
-2.1440253e-06
8.5735365e-06
-2.3887475e-06
8.717599e-06
-3.5988807e-06
-3.3363223e-06
8.9539816e-06
1.3859342e-05
7.3941922e-07
1.441282e-05
-3.0548383e-07
1.5067997e-05
-1.4544563e-06
1.5836718e-05
-2.3246945e-06
1.6771726e-05
-3.3217395e-06
1.8623118e-05
-7.3498596e-06
2.0566254e-05
-5.3816374e-06
1.5154235e-05
2.1133001e-05
1.3069862e-05
6.7710235e-06
1.1916632e-05
1.8307698e-06
1.1505672e-05
-6.1882777e-07
1.1645163e-05
-2.28453e-06
1.2082613e-05
-2.8258936e-06
1.2075487e-05
-3.5917664e-06
-3.3235785e-06
1.206275e-05
1.9829824e-05
-2.3755235e-07
2.0585477e-05
-1.0612348e-06
2.1459211e-05
-2.3282752e-06
2.2501815e-05
-3.3673386e-06
2.3776524e-05
-4.5964456e-06
2.6119362e-05
-9.6926969e-06
2.8717588e-05
-7.97957e-06
2.1912876e-05
2.7936932e-05
1.8898822e-05
9.7842167e-06
1.7305757e-05
3.4222961e-06
1.6668278e-05
1.8232992e-08
1.667609e-05
-2.2929849e-06
1.7040757e-05
-3.1908458e-06
1.6997889e-05
-3.5489454e-06
-3.179218e-06
1.6853513e-05
2.8590404e-05
-1.4754781e-06
2.9639551e-05
-2.1103983e-06
3.0811272e-05
-3.5000275e-06
3.2225417e-05
-4.7814531e-06
3.3958987e-05
-6.3300492e-06
3.6863099e-05
-1.259675e-05
4.0262846e-05
-1.137952e-05
3.1866103e-05
3.6334181e-05
2.7350456e-05
1.4299905e-05
2.5157066e-05
5.6159052e-06
2.4229085e-05
9.4551552e-07
2.4074809e-05
-2.1394271e-06
2.4313494e-05
-3.4294952e-06
2.4305321e-05
-3.5407667e-06
-3.0586717e-06
2.4184772e-05
4.165252e-05
-3.0242957e-06
4.3114234e-05
-3.5722301e-06
4.4701175e-05
-5.0870669e-06
4.6614727e-05
-6.6950772e-06
4.8955133e-05
-8.6704702e-06
5.2474763e-05
-1.6116451e-05
5.6820253e-05
-1.5725193e-05
4.6886359e-05
4.6267317e-05
4.0187864e-05
2.0997069e-05
3.7080588e-05
8.7219557e-06
3.5694787e-05
2.3303643e-06
3.527121e-05
-1.7159431e-06
3.529375e-05
-3.4520962e-06
3.5265643e-05
-3.5126537e-06
-2.9689554e-06
3.5175961e-05
6.1529599e-05
-4.956996e-06
6.3551162e-05
-5.5938879e-06
6.5721803e-05
-7.2577925e-06
6.8295826e-05
-9.2691543e-06
7.1404497e-05
-1.1779205e-05
7.5594866e-05
-2.0306889e-05
8.0959392e-05
-2.1089952e-05
6.9857343e-05
5.7369285e-05
6.0294272e-05
3.0559713e-05
5.5694432e-05
1.3321502e-05
5.3541407e-05
4.4830647e-06
5.2620972e-05
-7.9580689e-07
5.2249605e-05
-3.0806933e-06
5.2013621e-05
-3.2766985e-06
-2.7693722e-06
5.1813972e-05
9.2519655e-05
-7.3926858e-06
9.527657e-05
-8.3508996e-06
9.8252715e-05
-1.0233989e-05
0.00010167745
-1.2693965e-05
0.00010569856
-1.580034e-05
0.00011065356
-2.5261849e-05
0.00011694671
-2.7383268e-05
0.00010533303
6.898267e-05
9.2492659e-05
4.3399674e-05
8.5526966e-05
2.0286802e-05
8.2030188e-05
7.979492e-06
8.0199107e-05
1.0353522e-06
7.9137526e-05
-2.0190516e-06
7.84444e-05
-2.5835514e-06
-2.279555e-06
7.7954614e-05
0.00014217493
-1.0532418e-05
0.00014586739
-1.204342e-05
0.00014989561
-1.4262314e-05
0.00015437005
-1.7168428e-05
0.00015940234
-2.0832575e-05
0.00016527729
-3.1137002e-05
0.00017221819
-3.4324529e-05
0.00016073003
8.047025e-05
0.00014481649
5.931265e-05
0.00013451992
3.0583153e-05
0.00012877807
1.3721312e-05
0.00012542396
4.3893813e-06
0.00012330707
9.7854864e-08
0.00012193363
-1.2102059e-06
-1.3710782e-06
0.0001210252
0.00022407231
-1.4682305e-05
0.0002289234
-1.6894688e-05
0.00023421665
-1.9555651e-05
0.00023990546
-2.2857243e-05
0.00024600589
-2.6933262e-05
0.00025297243
-3.8103809e-05
0.00026027273
-4.1625364e-05
0.00024883935
9.1903181e-05
0.00023065214
7.7499823e-05
0.00021649468
4.4740364e-05
0.00020755777
2.265823e-05
0.00020199761
9.9495194e-06
0.00019846004
3.635393e-06
0.00019622192
1.0279264e-06
3.966278e-08
0.00019481117
0.00036315273
-2.0238637e-05
0.00036940115
-2.3143315e-05
0.00037609721
-2.6251891e-05
0.00038309214
-2.9852516e-05
0.00039030784
-3.4149154e-05
0.00039848708
-4.6283422e-05
0.0004061609
-4.9299398e-05
0.00039348075
0.0001045834
0.00037355709
9.7423354e-05
0.00035574168
6.2556082e-05
0.00034313418
3.5265611e-05
0.00033488043
1.820331e-05
0.00032962599
8.8897983e-06
0.00032636972
4.2840851e-06
2.0263629e-06
0.00032438305
0.000606177
-2.7646972e-05
0.00061407119
-3.1037977e-05
0.00062226448
-3.4445609e-05
0.00063060885
-3.8197029e-05
0.00063900502
-4.2545627e-05
0.00064848312
-5.5761572e-05
0.00065683498
-5.7651221e-05
0.00064094752
0.00012047114
0.00061856858
0.00011980284
0.0005974174
8.3707525e-05
0.00058123762
5.1445869e-05
0.00057020231
2.9238564e-05
0.000563126
1.596648e-05
0.00055877685
8.6331586e-06
4.6365686e-06
0.00055616692
0.0010422967
-3.7376369e-05
0.0010521131
-4.0855466e-05
0.0010619342
-4.426737e-05
0.0010716941
-4.7957633e-05
0.0010813555
-5.2207384e-05
0.0010921877
-6.659405e-05
0.0011014268
-6.6890179e-05
0.0010811941
0.00014070372
0.0010549733
0.00014602425
0.0010303019
0.00010837839
0.001010792
7.0956443e-05
0.00099716444
4.2865655e-05
0.0009883665
2.4765062e-05
0.00098297105
1.4028307e-05
7.8496231e-06
0.00097975853
0.0018435454
-4.9878638e-05
0.0018555798
-5.2891464e-05
0.001867206
-5.5894397e-05
0.0018784784
-5.9231294e-05
0.0018894605
-6.3189865e-05
0.0019015884
-7.8723005e-05
0.0019117209
-7.7022806e-05
0.0018885936
0.00016383019
0.0018591514
0.00017546674
0.0018316265
0.00013590252
0.0018096313
9.2952154e-05
0.0017941086
5.8387732e-05
0.0017840563
3.4817952e-05
0.0017779052
2.0178974e-05
1.1490846e-05
0.0017742645
0.0033449512
-6.5581056e-05
0.0033595384
-6.7481491e-05
0.0033732245
-6.9582499e-05
0.0033861907
-7.2199918e-05
0.0033986017
-7.5602237e-05
0.0034119733
-9.2096284e-05
0.0034234944
-8.8544665e-05
0.003405018
0.0001823054
0.0033797396
0.00020074484
0.0033552637
0.00016037746
0.0033352745
0.00011294132
0.0033210118
7.2649579e-05
0.0033117633
4.4066598e-05
0.0033061376
2.5803864e-05
1.4785224e-05
0.0033028434
0.006204837
-8.6466225e-05
0.006223796
-8.6442879e-05
0.0062412159
-8.7004085e-05
0.0062574165
-8.8402206e-05
0.006272671
-9.0857466e-05
0.0062887331
-0.00010815955
0.0063056189
-0.00010543055
0.0063153002
0.00017262326
0.0063191403
0.00019690497
0.0063186942
0.00016082294
0.0063164062
0.00011522965
0.0063141336
7.4921631e-05
0.0063125681
4.5632518e-05
0.0063116974
2.6674002e-05
1.5198471e-05
0.0063112846
0.011726055
-0.00012379919
0.011759859
-0.00012024431
0.011790859
-0.00011800151
0.011819669
-0.00011720908
0.011846805
-0.00011799248
0.011875638
-0.00013699082
0.011916028
-0.00014581987
0.012019439
6.9213601e-05
0.012122401
9.394293e-05
0.01220613
7.7094783e-05
0.012267222
5.4137956e-05
0.012308475
3.366927e-05
0.012334941
1.916711e-05
0.012351386
1.0229334e-05
5.1895153e-06
0.012361395
0.022513319
0.022617446
0.022714661
0.022806765
0.022895358
0.022993309
0.023141499
0.023537853
0.023951443
0.024303577
0.024569648
0.024753157
0.024871932
0.024945694
0.024990343
5.3573876e-07
-1.517087e-09
5.3696351e-07
-1.2236261e-09
5.3844643e-07
-1.4854659e-09
5.409598e-07
-2.4971565e-09
5.4517931e-07
-4.1782668e-09
5.5090799e-07
-5.704179e-09
5.5646839e-07
-5.5096566e-09
5.592104e-07
-2.8600082e-09
5.5755115e-07
1.7064383e-09
5.525477e-07
4.8508717e-09
5.465299e-07
5.9263972e-09
5.4113812e-07
5.3119417e-09
5.3685379e-07
4.260198e-09
5.3347007e-07
3.6262146e-09
5.3053421e-07
2.7650351e-09
5.2772264e-07
2.7911023e-09
5.24864e-07
2.8409158e-09
5.2188612e-07
2.9723885e-09
5.1878642e-07
3.0990784e-09
5.1559708e-07
3.1907148e-09
5.1234616e-07
3.253747e-09
5.0905442e-07
3.2941675e-09
5.0571401e-07
3.3429329e-09
5.0229988e-07
3.4166222e-09
4.9876966e-07
3.5325568e-09
4.9510314e-07
3.6688206e-09
4.913293e-07
3.775584e-09
4.8750684e-07
3.8241723e-09
4.8371457e-07
3.7934761e-09
4.8002277e-07
3.6925317e-09
4.764651e-07
3.5580926e-09
4.7300847e-07
3.4594036e-09
4.6993758e-07
3.1273346e-09
4.6608138e-07
3.78329e-09
4.5202468e-07
1.4055727e-08
4.2926839e-07
2.2756345e-08
4.086746e-07
2.0593813e-08
3.9148642e-07
1.7188158e-08
3.764895e-07
1.4996909e-08
3.633278e-07
1.3161692e-08
3.5184639e-07
1.14814e-08
3.4184366e-07
1.0002726e-08
3.3304925e-07
8.7944064e-09
3.2529428e-07
7.7549693e-09
3.194992e-07
5.7950709e-09
3.1715573e-07
2.3434784e-09
3.1466305e-07
2.4926704e-09
3.1193183e-07
2.7312221e-09
3.0876827e-07
3.1635567e-09
3.0505938e-07
3.7088998e-09
3.0066586e-07
4.393514e-09
2.9544005e-07
5.2258088e-09
2.8926143e-07
6.1786154e-09
2.8207973e-07
7.1817004e-09
2.739483e-07
8.1314252e-09
2.6507838e-07
8.8699223e-09
2.5588891e-07
9.1894673e-09
2.4703579e-07
8.8531094e-09
2.3937151e-07
7.6642728e-09
2.3398939e-07
5.3821229e-09
2.3186498e-07
2.1243987e-09
2.3527068e-07
-3.4057013e-09
2.3911162e-07
-3.8409502e-09
-2.4656155e-08
2.5034821e-06
-3.7354198e-09
2.5038679e-06
-1.6232588e-09
2.5049142e-06
-2.5702458e-09
2.5101753e-06
-7.8526902e-09
2.5227275e-06
-1.6910274e-08
2.5415561e-06
-2.4808024e-08
2.5587953e-06
-2.3127725e-08
2.562149e-06
-6.6393786e-09
2.5444295e-06
1.9017731e-08
2.5107038e-06
3.8921453e-08
2.4717243e-06
4.5516353e-08
2.4349813e-06
4.273272e-08
2.4025808e-06
3.7046166e-08
2.373502e-06
3.3231804e-08
2.345687e-06
3.0299328e-08
2.3176576e-06
3.0131248e-08
2.2886941e-06
3.1673454e-08
2.2585199e-06
3.3143163e-08
2.227187e-06
3.4449449e-08
2.1949105e-06
3.5490227e-08
2.1618962e-06
3.6295135e-08
2.1283272e-06
3.6891782e-08
2.0942758e-06
3.7424527e-08
2.0597528e-06
3.7968768e-08
2.0247075e-06
3.8602546e-08
1.9891882e-06
3.9207026e-08
1.953448e-06
3.9527384e-08
1.917849e-06
3.942823e-08
1.8828274e-06
3.8815568e-08
1.8487403e-06
3.7777583e-08
1.8158798e-06
3.6415381e-08
1.7838845e-06
3.5457402e-08
1.7551633e-06
3.1962764e-08
1.7115201e-06
4.7302324e-08
1.634229e-06
9.1340996e-08
1.5439452e-06
1.1303938e-07
1.462681e-06
1.0185742e-07
1.3919276e-06
8.7941462e-08
1.3290662e-06
7.785818e-08
1.2732309e-06
6.8996956e-08
1.2240805e-06
6.0631775e-08
1.1810443e-06
5.3038852e-08
1.1432114e-06
4.6627322e-08
1.1098943e-06
4.1072061e-08
1.0854106e-06
3.0278752e-08
1.0767812e-06
1.0972836e-08
1.067662e-06
1.1611811e-08
1.0576152e-06
1.2777989e-08
1.045964e-06
1.4814827e-08
1.0322683e-06
1.74046e-08
1.0160273e-06
2.0634501e-08
9.9671019e-07
2.4542901e-08
9.7387092e-07
2.9017898e-08
9.4730008e-07
3.3752529e-08