/*--------------------------------*- C++ -*----------------------------------*\
| =========                 |                                                 |
| \\      /  F ield         | OpenFOAM: The Open Source CFD Toolbox           |
|  \\    /   O peration     | Version:  v1912                                 |
|   \\  /    A nd           | Website:  www.openfoam.com                      |
|    \\/     M anipulation  |                                                 |
\*---------------------------------------------------------------------------*/
FoamFile
{
    version     2.0;
    format      ascii;
    class       volScalarField;
    location    "29500";
    object      timeScale;
}
// * * * * * * * * * * * * * * * * * * * * * * * * * * * * * * * * * * * * * //

dimensions      [0 0 1 0 0 0 0];


internalField   nonuniform List<scalar> 
4520
(
0.00168974567781432
0.00208695204295857
0.00246954503352058
0.00285089065031168
0.00317174407387373
0.00347077122292784
0.00365344616753387
0.00378712949570095
0.00377042297204398
0.00370626114743747
0.00357809837682358
0.00337470638999811
0.00317465641812653
0.00294662412861142
0.00275941305606574
0.00258255507906898
0.00246026125740636
0.00236273280821502
0.00231304138670828
0.00228296193115549
0.00228134210790435
0.00228513763710763
0.00229021041633410
0.00229763815067498
0.00168920202370051
0.00208784740295804
0.00246826461476078
0.00285578321059691
0.00317359460623731
0.00349638288351913
0.00367974037577060
0.00386509324904647
0.00386351235454856
0.00381389239442808
0.00368729548461686
0.00347696817512601
0.00323457675606814
0.00297537511714498
0.00274206363288805
0.00255106442704027
0.00240639217461286
0.00231674876911543
0.00226243782376857
0.00224636934485784
0.00224984459929630
0.00225716686707826
0.00226864139286269
0.00228282689320929
0.00168883766846901
0.00208667800429773
0.00246798692713248
0.00285428825898971
0.00317476762756628
0.00349561729640667
0.00368363477032368
0.00386796549698965
0.00386902104025487
0.00382199403694784
0.00369639273173270
0.00349112722161590
0.00327167277095372
0.00300865504610962
0.00279512572559368
0.00260050907097482
0.00246645191911085
0.00236793873093033
0.00231735415218349
0.00228902748950338
0.00229162660903354
0.00229535337431154
0.00230416419982847
0.00231314746920467
0.00168849289407981
0.00208572331153294
0.00246817036391923
0.00285307653019731
0.00317610038832623
0.00349501848025972
0.00368585470656352
0.00386897725547823
0.00387293805794441
0.00382641979249004
0.00370227598267559
0.00349926685285496
0.00327698933578208
0.00301441337232357
0.00279652969792750
0.00260064973488691
0.00246214642533998
0.00236354173902797
0.00230968183564532
0.00228357231054578
0.00228389604866319
0.00228979829143953
0.00229777024237813
0.00230686856574131
0.00168815913550937
0.00208525179104674
0.00246876834001710
0.00285353543395317
0.00317848055762856
0.00349668679135796
0.00368962348554561
0.00387216009244550
0.00387790379569068
0.00383175045829364
0.00370727306621185
0.00350452142490225
0.00328421837303947
0.00301820316357311
0.00280192137387216
0.00260308061262732
0.00246515709370117
0.00236416880884002
0.00231074857129766
0.00228295681827815
0.00228351064313940
0.00228756312298822
0.00229575009296468
0.00230415191977756
0.00168793078831551
0.00208543671784093
0.00247073975181068
0.00285660023368590
0.00318420154075043
0.00350295937714692
0.00369838468684708
0.00388105294596466
0.00388840025307109
0.00384237873859993
0.00371736539326048
0.00351401995216955
0.00329518784343519
0.00302178125005826
0.00280811759288957
0.00260057091009338
0.00246479212669085
0.00235681157680553
0.00230427692438767
0.00227230872378903
0.00227123692319159
0.00227658903518546
0.00228317064052973
0.00229070962965880
0.00168788483911473
0.00208670982545997
0.00247517859347932
0.00286405470491126
0.00319584430814232
0.00351709363251336
0.00371582708501217
0.00389991916676542
0.00390860172626522
0.00386159223943840
0.00373769982789836
0.00353564360276893
0.00330677388761953
0.00303161985572764
0.00281136885628331
0.00259828585262142
0.00245952224055944
0.00234474539204656
0.00229278199189962
0.00225425116377745
0.00225337801250135
0.00225636110106297
0.00226314435315305
0.00227016418512976
0.00168809675961302
0.00208959920551098
0.00248334189775870
0.00287811498204625
0.00321642413204417
0.00354308966226671
0.00374627045196277
0.00393372471612698
0.00394302872363939
0.00389470046355309
0.00376824609724918
0.00356359605457033
0.00332323694071900
0.00304387809013781
0.00281165697913066
0.00259411362517558
0.00244566174322920
0.00232795227397998
0.00226924613054334
0.00222962162290974
0.00222496288700718
0.00222779040611908
0.00223396856296440
0.00224037991896667
0.00168862266199090
0.00209442896347276
0.00249600871981645
0.00290013482871825
0.00324777214035985
0.00358335331859063
0.00379226678530091
0.00398539786886508
0.00399426131694958
0.00394374248194511
0.00381261996194250
0.00360194269915012
0.00334703092350655
0.00305861692523602
0.00281158839342347
0.00258590546691421
0.00242587368756625
0.00230297698534458
0.00223649846286020
0.00219490318414846
0.00218582306591583
0.00218842096618895
0.00219408072345511
0.00219915140860783
0.00168944343044894
0.00210091791120422
0.00251258612177880
0.00292904091993771
0.00328847722152561
0.00363596209393166
0.00385174981643138
0.00405253157270613
0.00406004862257390
0.00400646780123024
0.00386926921762324
0.00364975029667634
0.00337608154798039
0.00307592027012879
0.00281045913152726
0.00257451493229474
0.00240070135625871
0.00227142505957829
0.00219597665586341
0.00215185663923077
0.00213776671261176
0.00214012410806556
0.00214442385432992
0.00215087773674699
0.00169041553426153
0.00210811865565248
0.00253094588802764
0.00296107853258483
0.00333349877487753
0.00369424115127745
0.00391754622924913
0.00412688463369116
0.00413292489950990
0.00407573174210245
0.00393261534395214
0.00370328881191381
0.00340705139779275
0.00309518523168518
0.00280855788708550
0.00256216806808421
0.00237303941322785
0.00223717090874764
0.00215184705416539
0.00210493236001935
0.00208514789419173
0.00208722286008796
0.00209078010403199
0.00209688451503942
0.00169135392221846
0.00211483520478696
0.00254838000044016
0.00299151493882388
0.00337647489065877
0.00374982745637688
0.00398057969110391
0.00419804172855997
0.00420326910179111
0.00414206229885369
0.00399603353711106
0.00375716134677793
0.00343558014949961
0.00311577852241146
0.00280625105330879
0.00255166873381178
0.00234652393043181
0.00220529928478263
0.00210960036300315
0.00206032432661318
0.00203408956328640
0.00203458725495195
0.00203816492353631
0.00204499291154332
0.00169210622311202
0.00212025552937994
0.00256290078049735
0.00301693504596771
0.00341267100651261
0.00379664493903718
0.00403397696161872
0.00425829103743178
0.00426357686274682
0.00419961162243692
0.00404412036643241
0.00380987044242201
0.00345596675857638
0.00313717904866219
0.00280243295234510
0.00254533597815122
0.00232262235826007
0.00217960693966710
0.00207188871216093
0.00202240198908575
0.00198815427463229
0.00198583121738549
0.00198951059981007
0.00199682368052692
0.00169265855594789
0.00212411402593296
0.00257382123388722
0.00303604560015406
0.00344045350461727
0.00383229918548198
0.00407533813528796
0.00430462338936059
0.00431123085985947
0.00424580707763387
0.00408666764444277
0.00384575140306087
0.00347822912391923
0.00315601209921621
0.00280515617214684
0.00254155730853880
0.00230903947414508
0.00215912436055184
0.00204675057070928
0.00199100230617996
0.00195444486486508
0.00194759777078115
0.00195139402203086
0.00195856871167289
0.00169305177814541
0.00212675271805909
0.00258156070596536
0.00304994219032825
0.00346079704966221
0.00385882526361324
0.00410644842371616
0.00433999347429901
0.00434779862021133
0.00428282435820378
0.00412655480022271
0.00386994775853032
0.00350809158162141
0.00316399367102549
0.00281583919458709
0.00253604229008768
0.00230370462334259
0.00214264775566615
0.00202928621217109
0.00196601938388161
0.00192838585462871
0.00191488996569279
0.00191942140346999
0.00192323259766013
0.00169396582371777
0.00212814946089005
0.00258494657910625
0.00305480557024001
0.00347405000678204
0.00385954116940917
0.00410403130006777
0.00429372424669818
0.00426762988097311
0.00428538600065872
0.00388277183424421
0.00396898156762492
0.00322918216573194
0.00325795917716553
0.00261565232297338
0.00257586941298239
0.00217785790639701
0.00214134916042186
0.00194957641679915
0.00191787025203458
0.00187140191985813
0.00180784751752056
0.00168130136949428
0.00132375163773891
0.00170379290180556
0.00211257678308199
0.00248890500902885
0.00286489294097055
0.00306089275773490
0.00301637762137619
0.00289039501013998
0.00273111456875678
0.00255319292784146
0.00264891697334238
0.00210445199576536
0.00231716785049266
0.00167757050588944
0.00192243973781982
0.00132101536702170
0.00156659838537942
0.00103563998631257
0.00126730992327521
0.000786323438687385
0.000807995072458211
0.000636740548563953
0.000472783745112374
0.000370955144059466
0.000246029437924148
0.00174706095211765
0.00172746111947116
0.00152121284304144
0.00128188625398708
0.00116332270949809
0.00111078498463962
0.00106672776883327
0.00100423835786221
0.000922421799247551
0.000924939554968848
0.000681807065263895
0.000708872797051072
0.000482900894616403
0.000523799651682660
0.000338251630427825
0.000365080044128247
0.000236096514149003
0.000231217084745076
0.000171641309847083
0.000151560682410884
0.000126303020264926
0.000106752912771907
9.15236346744429e-05
7.91679173218406e-05
0.00124125761779040
0.000664076436525997
0.000472213507521941
0.000458453348397010
0.000498404440420726
0.000506937395163129
0.000482276676949915
0.000435838550756624
0.000380712071142081
0.000339148599050733
0.000265549946290930
0.000225904373142699
0.000177254332970205
0.000152870867345917
0.000119570572476364
0.000101650564251609
8.28106099901577e-05
7.07652197748000e-05
6.25832686034586e-05
5.57792862727957e-05
5.19182050485107e-05
4.76748687607405e-05
4.42099601211570e-05
4.43570061396617e-05
0.000429344235929123
0.000196758221769552
0.000196437734477165
0.000243215659103601
0.000262352140891327
0.000248694247639630
0.000221990384344428
0.000191858732174590
0.000162224864703043
0.000136881136904938
0.000112717301090811
9.09204741524548e-05
7.62064368666135e-05
6.17474853259417e-05
5.18964849047293e-05
4.28725432258880e-05
3.73408960895729e-05
3.27695077371102e-05
3.03927045303417e-05
2.84118536389953e-05
2.75351224460874e-05
2.64665053564925e-05
2.64188433330016e-05
2.70963202270438e-05
0.000118441147076073
9.31489245444342e-05
0.000112463646154496
0.000127357967010652
0.000121911254772797
0.000108814494160263
9.46507817288516e-05
8.10698272744096e-05
6.83432888318742e-05
5.80172961511390e-05
4.85799443441924e-05
3.99559597420531e-05
3.37595230044074e-05
2.79235653161149e-05
2.38222809813076e-05
2.03130483697842e-05
1.81345437343356e-05
1.65628794405579e-05
1.57212416585096e-05
1.52329716672455e-05
1.51427259004191e-05
1.51917718969183e-05
1.57204464696718e-05
1.58585089621176e-05
4.24945594852909e-05
4.74702737466852e-05
5.35741323430862e-05
5.29918849976047e-05
4.90802703355033e-05
4.40302309275977e-05
3.85335744594875e-05
3.30198282252402e-05
2.78386183822868e-05
2.36085191908105e-05
1.96899532537276e-05
1.64989649176371e-05
1.39253220571200e-05
1.18631983842200e-05
1.02979203813196e-05
9.12040264899541e-06
8.37329046610533e-06
7.90446717879868e-06
7.67380614569043e-06
7.64624658524362e-06
7.77297672097630e-06
8.03735899488453e-06
8.52886175346234e-06
8.75086671865557e-06
1.12052226556739e-05
1.23167087448546e-05
1.31124695708261e-05
1.32661759179193e-05
1.29427473622891e-05
1.22745065137762e-05
1.13553580495419e-05
1.02746032592953e-05
9.11780113357245e-06
7.96019349224411e-06
6.82666275198518e-06
5.84280570454856e-06
4.95145656354040e-06
4.27689832131442e-06
3.75824930554975e-06
3.43140967889081e-06
3.22332455409318e-06
3.12882982459161e-06
3.10975544432271e-06
3.17018574720628e-06
3.28856637523819e-06
3.47876578065564e-06
3.74818554554449e-06
3.93618404929038e-06
1.49592195519058e-06
1.60859327255569e-06
1.70952692567391e-06
1.75085881375674e-06
1.73419544836715e-06
1.67219795470023e-06
1.57862956619451e-06
1.46630433230876e-06
1.34623039825099e-06
1.22754838403131e-06
1.11763483505411e-06
1.02188153917964e-06
9.43378106435616e-07
8.84006204379865e-07
8.43706899496698e-07
8.21989771734674e-07
8.15830305991026e-07
8.26689929059919e-07
8.50512147796966e-07
8.89604273061114e-07
9.40511535571491e-07
1.00753290033196e-06
1.08512327673200e-06
1.14984748359736e-06
9.60839469302226e-05
9.75515097822801e-05
9.87906522546121e-05
9.99780728090715e-05
0.000101132756656151
0.000102356083508234
0.000103590464133138
8.48500599741436e-05
8.42583531308866e-05
8.80099789938662e-05
9.10866792954704e-05
9.31659904446165e-05
9.36996777096516e-05
9.30934586736213e-05
8.54851768916983e-05
0.000471237640679574
0.000539265111508054
0.000578967556105575
0.000594629269195098
0.000600762546699000
0.000601865754950791
0.000565862918372588
0.000503101854358976
0.000542422159030041
0.000560261641290064
0.000540987519050064
0.000506288979948000
0.000465688833743880
0.000460683080786408
0.000692930261897774
0.00124711656828370
0.00126402066414914
0.00141291244491431
0.00151022827394855
0.00154755291183997
0.00156293516022199
0.00139393720672520
0.00125933284963366
0.00151360024002552
0.00171921304666357
0.00165913073724070
0.00161451417763668
0.00170283617565043
0.00188243872014407
0.00314273076646964
0.00233084935882588
0.00215413968951368
0.00216756448271323
0.00230823658100027
0.00251137200097324
0.00274407416703416
0.00279881683376933
0.00218516084540692
0.00255454784773877
0.00344229395047165
0.00387791638265292
0.00429201872164832
0.00468098313527906
0.00608450000274411
0.00525600952813612
0.00321562387778746
0.00385855926258920
0.00363409360970150
0.00365931402894419
0.00392182003918502
0.00482413891050103
0.00576266068221270
0.00361269956091755
0.00384878360156469
0.00515656217424547
0.00659909444718340
0.00791160615613151
0.00874928184800931
0.00973460403013580
0.00694595258439933
0.00343001630039786
0.00627419919415440
0.00741372835220049
0.00779891228414395
0.00812708696482056
0.0108508163041979
0.0170738628436416
0.00641910897876014
0.00567004771044636
0.00677504048527068
0.00883749918463023
0.0109307816341794
0.0118044454507498
0.0136050329707974
0.00924359983084582
0.00343571846509401
0.00706124763080137
0.0108228435898121
0.0142772392553042
0.0165858672047799
0.0216316803763822
0.0448739980988054
0.0134136841450633
0.00904300116156446
0.00960046042272114
0.0111800272587400
0.0137591068019350
0.0152053539924707
0.0182446151520106
0.0146365288185063
0.00343330771776778
0.00711908539799980
0.0112656641949180
0.0154280559719318
0.0196788208239605
0.0236521075456411
0.0300727862170286
0.0253735182978577
0.0173276754660848
0.0170144861505230
0.0182779033250401
0.0215411446504148
0.0243308430569480
0.0259901535731405
0.0228416277793664
0.00343195806125285
0.00712452025617951
0.0112858161087656
0.0155013627294480
0.0197829486488522
0.0240505987656309
0.0295685890229464
0.0311033128885037
0.0300992884928521
0.0306681835395591
0.0324173969633542
0.0355074324743528
0.0350370575570738
0.0340951098021589
0.0301833861044564
0.00343093637105146
0.00712997119684146
0.0112953649445100
0.0155371447537310
0.0197875075366411
0.0241967411470911
0.0294133154796861
0.0325665248697377
0.0367155920288247
0.0396991367573569
0.0434952153044909
0.0432653780913151
0.0420407415060224
0.0390356986382545
0.0357447637424104
0.00343016189859928
0.00713730467668392
0.0113128696937637
0.0155655351805191
0.0198381595012623
0.0242673264020850
0.0296406749307358
0.0333269328958707
0.0386509056003809
0.0427592214301761
0.0467443585016692
0.0465457894855705
0.0452086018243940
0.0432312998138326
0.0400476093990057
0.00342952379361082
0.00714594076942645
0.0113331525015520
0.0156011616200591
0.0198982880302941
0.0243506662300884
0.0299393316568745
0.0339991828500397
0.0397433228366051
0.0439156421443785
0.0483104117096863
0.0487231710548192
0.0479646528136403
0.0465076250065082
0.0444431644813074
0.00342892782937063
0.00715451348063446
0.0113536400770343
0.0156456638149128
0.0199540526410537
0.0244897092148009
0.0301568149855728
0.0348647033696743
0.0403495186671621
0.0454252705195236
0.0490586628674853
0.0509236288459014
0.0506633111747716
0.0499707159112081
0.0487522412319399
0.00342829906882118
0.00716163028239791
0.0113745071610883
0.0156899336238299
0.0200236383455870
0.0246392853590136
0.0303974905047739
0.0356976940635438
0.0412507273328243
0.0465012447197430
0.0504823540975787
0.0526449554763976
0.0535393209450519
0.0534258669348645
0.0530151643091565
0.00342757008845273
0.00716671149086369
0.0113927975754523
0.0157370268286376
0.0200955074358984
0.0248181633972385
0.0306087968794576
0.0365527436443689
0.0420626629783600
0.0479313318867562
0.0515031797882940
0.0548614891410597
0.0557162160503475
0.0567851151358243
0.0567452306655040
0.00342672643206530
0.00716974100859271
0.0114095001166211
0.0157810549316129
0.0201793115055416
0.0249887378881930
0.0308598471496341
0.0372516862199278
0.0430678194939999
0.0490804437749676
0.0530070785811759
0.0566042050584688
0.0580494013757070
0.0594578580182977
0.0598624202348964
0.00342577967653672
0.00717144163840993
0.0114236687424490
0.0158220512377447
0.0202633895351411
0.0251461632684406
0.0311171993778726
0.0377825985350901
0.0440298226493274
0.0501660148947514
0.0545402666752884
0.0582466192613742
0.0601678385466329
0.0617318040291287
0.0624147843147902
0.00342474888825031
0.00717217165267433
0.0114345494633031
0.0158552335490806
0.0203331944454154
0.0252709236336089
0.0313198226508778
0.0381529641840995
0.0447815997350577
0.0510814418858721
0.0558679608122234
0.0596740560095438
0.0619370195893786
0.0635781446669056
0.0644361749634943
0.00342365668918272
0.00717187861070470
0.0114408890165692
0.0158766078421358
0.0203795998835656
0.0253512071309376
0.0314475219838541
0.0383778755784208
0.0452719357513726
0.0517120304506912
0.0568206386651150
0.0607123701739578
0.0632129656063185
0.0649003605208537
0.0658723241665605
0.00342257087951772
0.00717064467143120
0.0114428714215173
0.0158863254364665
0.0204030919310703
0.0253889922398596
0.0315020492744596
0.0384814751217764
0.0455239166610957
0.0520541781135106
0.0573561219529955
0.0613132363259834
0.0639543842540315
0.0656776466884789
0.0667174880460108
0.00342162336285801
0.00716912620388538
0.0114422791613147
0.0158887859470336
0.0204113534765429
0.0253980868835179
0.0315035114144609
0.0384972785946535
0.0456070521199581
0.0521809900562236
0.0575712069905447
0.0615666185104890
0.0642780518368935
0.0660279401058178
0.0671056327951455
0.00342100012192787
0.00716792419295123
0.0114408953780183
0.0158878269592452
0.0204115810804173
0.0253900707674845
0.0314633746764279
0.0384515596902364
0.0455853995872990
0.0521752833025272
0.0575888866901452
0.0616036920768282
0.0643445292299437
0.0661158226899256
0.0672154742927193
0.00342097642302733
0.00716785529419046
0.0114399938898535
0.0158838638713030
0.0203991576616625
0.0253463435912216
0.0313244184978021
0.0382475095172425
0.0455101818587322
0.0519568913672326
0.0576241442029457
0.0614383548283098
0.0644140120444540
0.0660668470833340
0.0672945762065517
0.00341300152623967
0.00704456577581863
0.0109075200675463
0.0144848546540798
0.0175899564444535
0.0203506893882521
0.0229003260674377
0.0249703253901580
0.0264232185619961
0.0273964473125456
0.0279494798171384
0.0283225716482680
0.0284883542513633
0.0286193940216513
0.0286633735488777
0.00230719305063855
0.00231847297876314
0.00233080760262171
0.00234499707677354
0.00235853723058686
0.00237330172076455
0.00238712413695049
0.00241111029012806
0.00243995684653282
0.00247421889274503
0.00250396924196298
0.00254333447732518
0.00257998928473690
0.00262752300605280
0.00267035827676280
0.00272312913723478
0.00277047204300039
0.00282926675466592
0.00287971545738905
0.00294381255949427
0.00299589423181160
0.00306406341020397
0.00311601261141291
0.00318677254845930
0.00323695629375185
0.00330895240945853
0.00335620847839412
0.00342835777723287
0.00347209212727033
0.00354357170631911
0.00358364433184347
0.00365317421567720
0.00369295057023330
0.00376956734346007
0.00341546971018353
0.00235226124567175
0.00181425436321870
0.00163253303739558
0.00154638703609686
0.00149991817571372
0.00147724873054218
0.00147196772231496
0.00147433754939912
0.00148456964366571
0.00150206613628141
0.00152010192052322
0.00154006779600208
0.00156378676927335
0.00159395022694679
0.00163532255375149
0.00169539472335926
0.00178278077407068
0.00190764663710570
0.00208707356482465
0.00234870531131029
0.00273449314398992
0.00330913137230701
0.00417620731668682
0.00550044086308540
0.00756007505914681
0.0107701298762423
0.0160146141168948
0.0235914416581607
0.0414644940864002
0.00229348544793001
0.00230415464335732
0.00231747015280365
0.00233079816612241
0.00234579133144106
0.00235941373117730
0.00237567602147779
0.00239725010290016
0.00242842095077338
0.00245898826826041
0.00249346973989206
0.00252825338964512
0.00257057295328327
0.00261147905284078
0.00266072388665135
0.00270550211498975
0.00276067621681746
0.00280972924608876
0.00287086411114975
0.00292267386476815
0.00298876203656290
0.00304158867919234
0.00311115359702463
0.00316309592201306
0.00323467845463716
0.00328413450254302
0.00335673217342930
0.00340254073977714
0.00347549157370196
0.00351702472088540
0.00358937354189776
0.00362881180189463
0.00371299423410982
0.00366093977803122
0.00287606522157792
0.00207374773254090
0.00175969007831550
0.00161269548201603
0.00153618046409041
0.00149370916394262
0.00147305210774084
0.00146866733936331
0.00147158756660551
0.00148248322504631
0.00150024449934679
0.00151855200866452
0.00153880178647563
0.00156279490916683
0.00159319472354428
0.00163472411656096
0.00169487578948543
0.00178234940418795
0.00190734942589221
0.00208689881299846
0.00234860765824685
0.00273442759821024
0.00330904110008065
0.00417600342732953
0.00549997582485626
0.00755910349637261
0.0107682416813825
0.0160112030772200
0.0235854218696107
0.0414554423784669
0.00232289549071583
0.00233401976154314
0.00234635094468688
0.00235996021456352
0.00237375327896332
0.00238737802596196
0.00240216940495482
0.00242431183890213
0.00245515381063551
0.00248575434073360
0.00251928673973979
0.00255342979716169
0.00259519261226311
0.00263604032769493
0.00268473454354294
0.00273064748485112
0.00278469454131422
0.00283570680149409
0.00289365943370448
0.00294991858032974
0.00300930970281315
0.00307111103236782
0.00312839191004735
0.00319579439593420
0.00324807813571566
0.00332007898042924
0.00336659866103705
0.00344054096836716
0.00348266291915420
0.00355611349553855
0.00359330027152127
0.00368384703143486
0.00368754378059401
0.00317380509864109
0.00223872114934869
0.00183926109804215
0.00166900368072558
0.00156989180120459
0.00151205334533880
0.00147846704488012
0.00146265024955848
0.00146048427432759
0.00146495549434444
0.00147753960282642
0.00149593442198076
0.00151485697187048
0.00153573814784908
0.00156034611772342
0.00159129503311834
0.00163322416438380
0.00169361709386430
0.00178133708879094
0.00190667469170791
0.00208654375475890
0.00234849120008605
0.00273448022301261
0.00330919139226637
0.00417615363487902
0.00549997255788692
0.00755869519566159
0.0107669989028751
0.0160085109953081
0.0235800476700375
0.0414471939310930
0.00231727121885977
0.00232811894754552
0.00234109428093750
0.00235447286910069
0.00236860686360685
0.00238191392557679
0.00239663901671423
0.00241850678150511
0.00244913459106730
0.00248044392584315
0.00251401374109631
0.00254947707701168
0.00259099725512601
0.00263289714889808
0.00268151034954930
0.00272761114446707
0.00278270455619452
0.00283223630058914
0.00289319891045138
0.00294530745487241
0.00301098765399312
0.00306407515524321
0.00313312922688310
0.00318536022710039
0.00325648898578898
0.00330598637930306
0.00337879926718439
0.00342359719226275
0.00349832783777515
0.00353676351435713
0.00363204502916447
0.00363308702783497
0.00325911596244862
0.00237671364797343
0.00186840753072044
0.00167218184847841
0.00157346035110899
0.00151284454412335
0.00147589762942622
0.00145419378712631
0.00144561897082653
0.00144676577724050
0.00145434084412537
0.00146950997154727
0.00148895787647639
0.00150884234574976
0.00153068456115290
0.00155623606957653
0.00158805573228234
0.00163066734501776
0.00169151855882402
0.00177968354834616
0.00190558503038257
0.00208599490638426
0.00234837078277872
0.00273469451166529
0.00330965595533916
0.00417676729079641
0.00550058845020211
0.00755907932621058
0.0107667401572050
0.0160070546034936
0.0235760975413695
0.0414409177850441
0.00231449681259650
0.00232590614052781
0.00233880338516063
0.00235278633544988
0.00236656175840385
0.00238012642607982
0.00239393970906891
0.00241635330309673
0.00244613802810821
0.00247828519080957
0.00251052146995451
0.00254739383562330
0.00258700082480313
0.00263135447898213
0.00267697926885951
0.00272710255359420
0.00277749850030357
0.00283296131451943
0.00288707890405988
0.00294743798183003
0.00300363498403951
0.00306809699262157
0.00312383162839914
0.00319182929491760
0.00324440250859538
0.00331569766794914
0.00336271722724542
0.00343795324149123
0.00347405402577150
0.00357699647303855
0.00354661207806475
0.00316793765275677
0.00235127331595804
0.00187040042583481
0.00165668615969989
0.00154639975559461
0.00148607545588846
0.00145138484923130
0.00143228244578894
0.00142270868388075
0.00142215694408076
0.00142772152226604
0.00144026841210837
0.00145812371984666
0.00147927757485566
0.00150046342413040
0.00152356321152164
0.00155035974811156
0.00158336396469675
0.00162696135010628
0.00168852396779061
0.00177735982805949
0.00190406832339423
0.00208526141817211
0.00234828089975500
0.00273512972058363
0.00331051780739281
0.00417795131316352
0.00550195577746924
0.00756042023234986
0.0107676708650354
0.0160070998018518
0.0235739071539168
0.0414371236483604
0.00230096192150311
0.00231294258416554
0.00232597610808513
0.00234057237494375
0.00235398612475835
0.00236751384811527
0.00237991485707044
0.00240255808816652
0.00243154636510784
0.00246526796138891
0.00249670643225929
0.00253606445969816
0.00257414060359602
0.00262163169024612
0.00266479455256089
0.00271882275714136
0.00276600180170719
0.00282620537206926
0.00287646080630579
0.00294213204046166
0.00299351283915112
0.00306396108852757
0.00311390183976234
0.00318806692776489
0.00323531289673530
0.00331008081006204
0.00335801071606365
0.00342473358209776
0.00348388572728001
0.00337890027007246
0.00290932334180927
0.00217389390848601
0.00179251564061315
0.00161407442424214
0.00150903431531055
0.00144623543203253
0.00141028322028284
0.00139277975842202
0.00138673186214562
0.00138732509604063
0.00139329894128160
0.00140562748755829
0.00142307807275980
0.00144387994081115
0.00146718714661193
0.00148993859145088
0.00151451920338410
0.00154279702834397
0.00157725362548386
0.00162212570639154
0.00168466330990427
0.00177440467707238
0.00190216324542254
0.00208438989754496
0.00234828472125649
0.00273586844539373
0.00331188003427292
0.00417983025834716
0.00550422262493317
0.00756289292301160
0.0107700014705360
0.0160089123279857
0.0235737976202204
0.0414363046387504
0.00228112497510437
0.00229413045667360
0.00230775328208441
0.00232315513534697
0.00233627722018784
0.00234928111809844
0.00236009691256512
0.00238227437306698
0.00241107204402857
0.00244506441497751
0.00247710520036654
0.00251682111730906
0.00255596141411254
0.00260339935538478
0.00264778882202269
0.00270151515314834
0.00274994510215844
0.00280971873054963
0.00286129165646867
0.00292602875535448
0.00298009757036132
0.00304698691797191
0.00310359210060083
0.00316921026531798
0.00322783468756976
0.00329137085635664
0.00335210296458914
0.00329475195270476
0.00300475867537606
0.00242265643881200
0.00189846168067676
0.00165583646953728
0.00152755792400357
0.00144927306868668
0.00139736488507227
0.00136467104419567
0.00134637633251253
0.00134105092045444
0.00134305903083832
0.00135039319628263
0.00136398402394429
0.00138195364091406
0.00140379503381312
0.00142771807332062
0.00145334516478378
0.00147779507241351
0.00150397041119896
0.00153386592747582
0.00156995788131126
0.00161633879040343
0.00168009203853324
0.00177095642199917
0.00189998574231699
0.00208348488081485
0.00234848837068366
0.00273702680156038
0.00331387274817459
0.00418255257645302
0.00550755937859485
0.00756669594145660
0.0107739636222721
0.0160127799918649
0.0235761095473549
0.0414389951295630
0.00225171176535722
0.00226589619307778
0.00227991548353303
0.00229641232329440
0.00230868559125335
0.00232019302224037
0.00232925971896196
0.00235015731283257
0.00237701256751503
0.00241379174173680
0.00244436568698201
0.00248826876453801
0.00252496152343695
0.00257759277260308
0.00261811325369907
0.00267807311568097
0.00272169167333842
0.00278834007970821
0.00283458672238648
0.00290628840160604
0.00295406783145916
0.00303163656454678
0.00307759713698278
0.00315883373508328
0.00315163969743969
0.00306400096866552
0.00278100172355085
0.00233820962508046
0.00186715511743284
0.00161850690918426
0.00148900434837067
0.00141296564689121
0.00136437795825196
0.00133277247069113
0.00131128310608423
0.00129873606940788
0.00129403452452278
0.00129641493122665
0.00130394411761802
0.00131765541592124
0.00133625484609857
0.00135867047800366
0.00138417980537751
0.00141093628510008
0.00143872243956499
0.00146484347677236
0.00149260082025609
0.00152413187334607
0.00156193092023128
0.00160996506552904
0.00167511817389177
0.00176727684497636
0.00189775172916163
0.00208272758503227
0.00234905557876540
0.00273876388088725
0.00331665998608429
0.00418629426431092
0.00551216106755126
0.00757205105676529
0.0107798140091854
0.0160190177779059
0.0235812121974009
0.0414457762215718
0.00221241075574728
0.00222609875058649
0.00224287809777884
0.00225811133406122
0.00227171972372581
0.00227863409302721
0.00228606713952411
0.00230295593513981
0.00233328583463360
0.00236806454487657
0.00240330703315138
0.00244570976173820