0 	41.448153 	-5.6284489e-19 	-2.8311469e-09
0.00071818182 	41.42618 	-9.2707417e-16 	0.021557184
0.0014363636 	41.422163 	3.4583252e-06 	0.040753722
0.0021545455 	41.414929 	4.3711089e-06 	0.059527501
0.0028727273 	41.404566 	1.543026e-06 	0.078480487
0.0035909091 	41.391324 	1.161898e-07 	0.097679577
0.0043090909 	41.373507 	6.3012512e-07 	0.11709834
0.0050272727 	41.352714 	1.4031945e-06 	0.13629641
0.0057454545 	41.329591 	2.2673931e-07 	0.15545749
0.0064636364 	41.301453 	9.7513535e-07 	0.17475324
0.0071818182 	41.270994 	1.4276249e-06 	0.19378345
0.0079 	41.237318 	4.4925733e-07 	0.2129732
0.0086181818 	41.199661 	2.8865385e-06 	0.23182891
0.0093363636 	41.172353 	7.4590496e-06 	0.25095218
0.010054545 	41.115608 	3.7363744e-06 	0.26951845
0.010772727 	41.070611 	2.6836823e-07 	0.28813218
0.011490909 	41.018993 	4.8362638e-06 	0.30678201
0.012209091 	40.968051 	2.4861844e-07 	0.32516916
0.012927273 	40.910102 	6.8758704e-06 	0.34355683
0.013645455 	40.852154 	4.8016418e-08 	0.36194449
0.014363636 	40.789348 	8.7356828e-06 	0.37978896
0.015081818 	40.724957 	1.8640477e-06 	0.39786954
0.0158 	40.657246 	8.1628256e-06 	0.41543512
0.016518182 	40.586348 	5.5594495e-06 	0.43316208
0.017236364 	40.514387 	5.4122976e-06 	0.45046405
0.017954545 	40.436968 	1.1938387e-05 	0.46778992
0.018672727 	40.372466 	1.4916802e-05 	0.48519649
0.019390909 	40.277508 	1.6135522e-05 	0.50173431
0.020109091 	40.193611 	6.8012745e-06 	0.51861149
0.020827273 	40.108666 	8.9923325e-06 	0.53498976
0.021545455 	40.018388 	1.8711338e-05 	0.55137139
0.022263636 	39.928111 	8.91627e-07 	0.56775303
0.022981818 	39.834612 	1.9358041e-05 	0.58340366
0.0237 	39.738108 	1.5348071e-05 	0.5992445
0.024418182 	39.642956 	4.2851621e-06 	0.61472746
0.025136364 	39.540431 	3.0122771e-05 	0.6299846
0.025854545 	39.437906 	1.2314297e-05 	0.64524173
0.026572727 	39.33572 	1.1342439e-05 	0.66000414
0.027290909 	39.227428 	3.7370544e-05 	0.67463768
0.028009091 	39.119136 	1.0179938e-05 	0.68927121
0.028727273 	39.010755 	1.730804e-05 	0.70331413
0.029445455 	38.896991 	4.0260359e-05 	0.71728765
0.030163636 	38.783227 	9.5959947e-06 	0.73126117
0.030881818 	38.669454 	2.1429911e-05 	0.74459764
0.0316 	38.550549 	4.5559984e-05 	0.75787847
0.032318182 	38.431644 	1.1291e-05 	0.7711593
0.033036364 	38.313229 	2.2890196e-05 	0.78381303
0.033754545 	38.18954 	5.405153e-05 	0.79637237
0.034472727 	38.065852 	1.6074997e-05 	0.8089317
0.035190909 	37.943482 	2.0798879e-05 	0.82093596
0.035909091 	37.815389 	6.5289921e-05 	0.8327488
0.036627273 	37.687296 	2.485233e-05 	0.84456165
0.037345455 	37.561585 	1.4177432e-05 	0.85595848
0.038063636 	37.429479 	6.2638708e-05 	0.86700334
0.038781818 	37.297373 	3.8644608e-05 	0.8780482
0.0395 	37.168862 	1.9304661e-06 	0.88888818
0.040218182 	37.033144 	5.4389966e-05 	0.89914601
0.040936364 	36.897425 	5.8629071e-05 	0.90940383
0.041654545 	36.761707 	9.1749184e-06 	0.91966166
0.042372727 	36.627651 	3.9284179e-05 	0.92919865
0.043090909 	36.488723 	8.6210444e-05 	0.93865018
0.043809091 	36.349795 	3.2860443e-05 	0.94810171
0.044527273 	36.213863 	1.562801e-05 	0.95721477
0.045245455 	36.070866 	7.5468329e-05 	0.96592258
0.045963636 	35.927869 	6.5015879e-05 	0.97463039
0.046681818 	35.784872 	8.4156156e-06 	0.98333821
0.0474 	35.645623 	4.6691427e-05 	0.99123994
0.048118182 	35.50168 	0.00011134484 	0.99902495
0.048836364 	35.357738 	5.6077206e-05 	1.00681
0.049554545 	35.224578 	3.5898284e-05 	1.014846
0.050272727 	35.071968 	6.4643434e-05 	1.0214796
0.050990909 	34.925484 	0.00012335853 	1.0284318
0.051709091 	34.779 	5.8709019e-05 	1.035384
0.052427273 	34.642584 	3.3923058e-05 	1.0425443
0.053145455 	34.489326 	6.8518871e-05 	1.0483445
0.053863636 	34.341185 	0.00014094586 	1.0544055
0.054581818 	34.193045 	7.9042492e-05 	1.0604665
0.0553 	34.044905 	1.0598215e-05 	1.0665275
0.056018182 	33.901 	5.2713722e-05 	1.0718734
0.056736364 	33.751512 	0.00012916157 	1.0770173
0.057454545 	33.602024 	0.00012221448 	1.0821612
0.058172727 	33.452536 	5.0009333e-05 	1.087305
0.058890909 	33.308432 	1.1305513e-05 	1.0922534
0.059609091 	33.157979 	9.1754341e-05 	1.0964527
0.060327273 	33.007526 	0.00017220317 	1.1006519
0.061045455 	32.857073 	0.00011933757 	1.1048511
0.061763636 	32.70662 	4.3419528e-05 	1.1090504
0.062481818 	32.562069 	2.0931206e-05 	1.1129661
0.0632 	32.411444 	0.00010542484 	1.1161827
0.063918182 	32.260819 	0.00018991847 	1.1193993
0.064636364 	32.110193 	0.00014914422 	1.1226159
0.065354545 	31.959568 	6.9523357e-05 	1.1258324
0.066072727 	31.817868 	3.3693167e-05 	1.1291794
0.066790909 	31.664979 	8.2285157e-05 	1.1313125
0.067509091 	31.514649 	0.00017073342 	1.1335176
0.068227273 	31.364319 	0.00022250779 	1.1357226
0.068945455 	31.213988 	0.00013931087 	1.1379277
0.069663636 	31.063658 	5.6113943e-05 	1.1401327
0.070381818 	30.920348 	1.0148465e-05 	1.1422438
0.0711 	30.770981 	0.00010245303 	1.1434052
