0 	181.62914 	-2.4664315e-18 	-1.2406313e-08
0.00071818182 	181.6488 	-8.5804924e-07 	0.0032684373
0.0014363636 	181.64274 	-1.3294609e-06 	0.006615362
0.0021545455 	181.62167 	-4.0640965e-06 	0.0087198053
0.0028727273 	181.60334 	-3.1328327e-06 	0.011228809
0.0035909091 	181.585 	1.0534151e-06 	0.014441455
0.0043090909 	181.56271 	1.5645368e-06 	0.014852902
0.0050272727 	181.47631 	-1.5942087e-05 	0.022384357
0.0057454545 	181.23765 	-8.2879475e-05 	0.031574564
0.0064636364 	180.78441 	-0.0001582076 	0.055912925
0.0071818182 	178.39314 	-0.00045375022 	0.20225034
0.0079 	176.37091 	-0.00015847238 	0.32359812
0.0086181818 	172.71586 	-0.00048079143 	0.52631484
0.0093363636 	169.02358 	-0.0001131367 	0.73306371
0.010054545 	165.50543 	-0.00021677001 	0.90166843
0.010772727 	162.00818 	-0.00027498858 	1.0560924
0.011490909 	158.62429 	-4.4190756e-05 	1.195702
0.012209091 	155.26916 	-0.00031538911 	1.3143761
0.012927273 	151.92105 	-6.0286576e-06 	1.4322823
0.013645455 	148.6351 	-0.00028554425 	1.5320412
0.014363636 	145.3019 	-1.154992e-05 	1.633154
0.015081818 	142.03404 	-0.00017537655 	1.7182051
0.0158 	138.76393 	-0.00010762807 	1.7987696
0.016518182 	135.47612 	-7.6091778e-06 	1.8735118
0.017236364 	132.30429 	-0.0002499044 	1.9321296
0.017954545 	129.0653 	-2.0917008e-05 	1.9924911
0.018672727 	125.87142 	-1.7628751e-05 	2.0418445
0.019390909 	122.74427 	-0.00016104046 	2.0804153
0.020109091 	119.62194 	-6.9173211e-05 	2.1164232
0.020827273 	116.52993 	5.3507286e-05 	2.1456903
0.021545455 	113.47636 	-3.1556127e-05 	2.1659623
0.022263636 	110.47912 	-9.5174112e-05 	2.1785407
0.022981818 	107.52103 	-5.6117162e-05 	2.1870331
0.0237 	104.60457 	-4.8856472e-06 	2.1901849
0.024418182 	101.72622 	6.4413061e-05 	2.1857886
0.025136364 	98.912324 	-1.3198328e-05 	2.1746032
0.025854545 	96.164925 	-2.5464099e-05 	2.1574166
0.026572727 	93.470913 	-2.4951058e-05 	2.1351203
0.027290909 	90.826819 	-9.3990142e-06 	2.108703
0.028009091 	88.243733 	-1.0841434e-06 	2.0772736
0.028727273 	85.721838 	2.6821879e-06 	2.0410051
0.029445455 	83.227762 	4.821661e-06 	1.9995104
0.030163636 	80.845556 	3.8229337e-06 	1.9550083
0.030881818 	78.514873 	2.1358022e-05 	1.9067053
0.0316 	76.236381 	8.0267347e-05 	1.8541565
0.032318182 	74.018057 	5.7744737e-06 	1.7977085
0.033036364 	71.845336 	1.7348751e-05 	1.7371926
0.033754545 	69.758168 	7.9761123e-06 	1.676368
0.034472727 	67.751444 	0.00012718511 	1.6142855
0.035190909 	65.720002 	5.4645799e-06 	1.5442266
0.035909091 	63.853334 	-1.071029e-06 	1.478865
0.036627273 	61.953735 	-3.3617987e-06 	1.4061449
0.037345455 	60.179442 	-5.6980177e-06 	1.336042
0.038063636 	58.368591 	-1.8741695e-05 	1.258685
0.038781818 	56.749966 	0.00013841363 	1.1893843
0.0395 	54.965603 	-5.8271775e-05 	1.1040928
0.040218182 	53.47114 	-1.3133815e-05 	1.0342839
0.040936364 	51.961059 	-4.4069972e-06 	0.95945481
0.041654545 	50.301288 	-0.00010436075 	0.86935802
0.042372727 	48.958457 	-3.7936259e-05 	0.79854288
0.043090909 	47.617981 	0.00027838976 	0.72519552
0.043809091 	46.181192 	-7.9746147e-05 	0.63951306
0.044527273 	44.783564 	-0.00014779295 	0.55435475
0.045245455 	43.624644 	-4.8791402e-05 	0.48515545
0.045963636 	42.451346 	0.00037924224 	0.41245845
0.046681818 	41.229391 	-5.7352174e-05 	0.33147655
0.0474 	39.954042 	-0.00020299421 	0.24297293
0.048118182 	38.875455 	-0.00017216479 	0.16907986
0.048836364 	37.887833 	-5.9749492e-05 	0.10194151
0.049554545 	36.895727 	0.00031131443 	0.032304366
0.050272727 	35.895281 	-9.6318872e-06 	-0.040791084
0.050990909 	34.845676 	-0.00016484122 	-0.123309
0.051709091 	33.79607 	-0.00032005054 	-0.20582691
0.052427273 	32.965666 	-0.00022734631 	-0.27016997
0.053145455 	32.157606 	-0.00010937087 	-0.33266037
0.053863636 	31.350253 	4.0183979e-05 	-0.39537482
0.054581818 	30.551879 	0.00036170112 	-0.46093708
0.0553 	29.748858 	-4.2305142e-05 	-0.52832632
0.056018182 	28.93367 	-0.0001953642 	-0.60049856
0.056736364 	28.118483 	-0.00034842325 	-0.67267079
0.057454545 	27.402467 	-0.00035886439 	-0.73567303
0.058172727 	26.773569 	-0.00024402159 	-0.79061982
0.058890909 	26.144672 	-0.0001291788 	-0.84556661
0.059609091 	25.515775 	-1.4336002e-05 	-0.90051339
0.060327273 	24.908566 	0.00036000804 	-0.95587504
0.061045455 	24.304452 	0.00016121034 	-1.0112959
0.061763636 	23.707159 	-7.8322623e-05 	-1.068186
0.062481818 	23.115198 	-0.00021784353 	-1.1262243
0.0632 	22.523236 	-0.00035736443 	-1.1842625
0.063918182 	21.936402 	-0.0004873816 	-1.2417783
0.064636364 	21.475431 	-0.00038410724 	-1.2864667
0.065354545 	21.014461 	-0.00028083287 	-1.3311552
0.066072727 	20.55349 	-0.0001775585 	-1.3758437
0.066790909 	20.09252 	-7.4284134e-05 	-1.4205321
0.067509091 	19.640571 	7.2837006e-05 	-1.4647575
0.068227273 	19.21174 	0.00033231035 	-1.5077962
0.068945455 	18.782909 	0.00016511312 	-1.550835
0.069663636 	18.362111 	-3.2437027e-05 	-1.5936613
0.070381818 	17.962414 	-0.00015007148 	-1.6359296
0.0711 	17.562717 	-0.00026770594 	-1.6781978
