/*--------------------------------*- C++ -*----------------------------------*\
| =========                 |                                                 |
| \\      /  F ield         | OpenFOAM: The Open Source CFD Toolbox           |
|  \\    /   O peration     | Version:  v1912                                 |
|   \\  /    A nd           | Website:  www.openfoam.com                      |
|    \\/     M anipulation  |                                                 |
\*---------------------------------------------------------------------------*/
FoamFile
{
    version     2.0;
    format      ascii;
    class       volTensorField;
    location    "0";
    object      grad(U);
}
// * * * * * * * * * * * * * * * * * * * * * * * * * * * * * * * * * * * * * //

dimensions      [0 0 -1 0 0 0 0];


internalField   nonuniform List<tensor> 
4520
(
(6.6253299e-15 2.4983631e-28 4.7852844e-23 -9.0692126e-11 7.2989533e-07 7.2551876e-17 0 1.4510651e-16 2.7793236e-11)
(3.0240866e-14 -9.8825787e-27 6.0778553e-23 0 7.0341252e-07 6.9919474e-17 1.2735876e-12 1.3984161e-16 2.6784813e-11)
(-6.0233842e-14 -4.7514075e-28 -9.1006934e-23 7.4167388e-11 6.7926662e-07 6.7519362e-17 0 1.350413e-16 2.5865376e-11)
(6.2506678e-14 -1.9255036e-28 -3.6880478e-23 0 6.6316139e-07 6.5918496e-17 0 1.318395e-16 2.5252115e-11)
(-1.7127572e-14 6.6539316e-28 1.2744727e-22 0 6.5602319e-07 6.5208956e-17 0 1.304204e-16 2.4980304e-11)
(-1.6915595e-14 7.9594829e-27 -1.0551355e-22 -1.3601629e-10 6.5746762e-07 6.5352534e-17 0 1.3070756e-16 2.5035306e-11)
(5.0466443e-15 1.0476482e-28 2.0066318e-23 0 6.6703504e-07 6.6303539e-17 1.1052503e-12 1.326096e-16 2.5399618e-11)
(5.6382461e-14 9.2328007e-27 -4.9991312e-23 0 6.8423274e-07 6.8012997e-17 5.9271118e-13 1.3602858e-16 2.6054478e-11)
(-2.9729316e-14 -1.0058693e-26 1.4013569e-22 8.3614917e-11 7.0846999e-07 7.0422189e-17 -1.3064831e-12 1.4084706e-16 2.6977394e-11)
(-6.824083e-15 -6.1252987e-27 -4.333409e-23 0 7.3892634e-07 7.3449562e-17 -7.3657225e-13 1.4690192e-16 2.8137122e-11)
(1.6128567e-14 -5.864743e-27 9.2124006e-23 1.0818132e-10 7.7436596e-07 7.6972273e-17 8.4516654e-13 1.5394748e-16 2.9486606e-11)
(-1.0136569e-14 -8.1172141e-28 -1.5547451e-22 1.2552866e-10 8.1296541e-07 8.0809073e-17 1.9613852e-12 1.6162122e-16 3.095641e-11)
(-8.1691477e-14 9.4591371e-27 1.1347398e-22 1.4628274e-10 8.5223607e-07 8.4712592e-17 0 1.6942841e-16 3.2451774e-11)
(4.0340256e-14 -1.1359904e-26 -1.3867434e-22 -1.6998749e-10 8.8910842e-07 8.8377718e-17 0 1.767588e-16 3.3855813e-11)
(4.2214151e-14 5.1099437e-28 9.7874222e-23 -1.9562834e-10 9.2014464e-07 9.1462731e-17 -1.5283464e-12 1.8292894e-16 3.5037623e-11)
(-8.6712055e-15 -9.3170519e-28 -1.7845582e-22 -1.1087774e-10 9.4226431e-07 9.3661434e-17 3.4649293e-12 1.8732643e-16 3.5879904e-11)
(-5.4606024e-14 1.467518e-27 2.8108368e-22 0 9.5339543e-07 9.4767871e-17 9.6395121e-13 1.8953935e-16 3.6303759e-11)
(2.9405338e-14 -1.9645192e-27 -3.762777e-22 -1.3463877e-10 9.5280305e-07 9.4708989e-17 -1.0518654e-12 1.8942158e-16 3.6281202e-11)
(1.4253098e-14 -2.0575925e-28 -3.9410466e-23 0 9.4134947e-07 9.3570499e-17 2.2540807e-12 1.8714456e-16 3.5845068e-11)
(6.9071649e-14 1.2614288e-27 1.8458411e-22 0 9.2111259e-07 9.1558944e-17 -2.3792112e-12 1.8312137e-16 3.507448e-11)
(-1.1100018e-13 1.9768951e-26 -2.4514577e-23 0 8.9473734e-07 8.8937235e-17 -1.2421935e-12 1.7787785e-16 3.4070154e-11)
(-1.2064187e-14 2.3498915e-26 4.2321314e-22 -1.6497242e-10 8.6483516e-07 8.5964947e-17 3.8665411e-12 1.7193317e-16 3.2931527e-11)
(3.7811327e-14 1.6287791e-28 3.1197112e-23 8.5561088e-11 8.3451441e-07 8.2951052e-17 0 1.6590526e-16 3.1776962e-11)
(6.1817631e-14 -2.3530787e-26 -2.2190038e-22 0 8.0702635e-07 8.0218729e-17 1.3967312e-12 1.6044051e-16 3.0730261e-11)
(-8.6507199e-14 7.4488043e-27 -1.1777408e-22 3.1481518e-11 2.027389e-07 2.0152324e-17 0 4.0305416e-17 7.71997e-12)
(-3.0686753e-14 2.2390816e-27 3.6456857e-22 0 1.9607009e-07 1.9489442e-17 -1.1177547e-12 3.8979627e-17 7.4660326e-12)
(-1.7530188e-14 -1.5864835e-28 -7.6958202e-25 0 1.9006345e-07 1.8892379e-17 2.0594754e-13 3.7785478e-17 7.2373092e-12)
(5.4832659e-14 3.1378861e-27 1.0058997e-23 0 1.8627966e-07 1.851627e-17 3.9136272e-13 3.7033245e-17 7.0932288e-12)
(-1.2737393e-15 -9.6393589e-27 -7.6528878e-23 2.4644524e-11 1.8497403e-07 1.838649e-17 0 3.677368e-17 7.0435126e-12)
(-4.4651644e-14 -1.7970652e-26 1.7155508e-22 0 1.860491e-07 1.8493352e-17 0 3.6987409e-17 7.0844495e-12)
(1.1749187e-13 -1.0139352e-26 -4.38435e-23 -2.6398847e-11 1.893918e-07 1.8825618e-17 0 3.7651952e-17 7.211734e-12)
(-1.1824437e-13 -4.5433238e-27 -1.4152148e-22 -2.8613823e-11 1.9488146e-07 1.9371292e-17 2.2354549e-13 3.8743322e-17 7.4207715e-12)
(9.7294898e-14 -6.7798161e-29 -6.0692169e-23 -3.1846132e-11 2.0236957e-07 2.0115613e-17 9.9519161e-13 4.0231991e-17 7.7059064e-12)
(-7.6549128e-14 -1.0282802e-28 -3.3266668e-23 0 2.1164136e-07 2.1037232e-17 5.6621682e-13 4.2075265e-17 8.0589613e-12)
(-3.2894595e-14 8.1743022e-27 7.3524688e-23 -4.1940249e-11 2.223621e-07 2.2102878e-17 3.276582e-13 4.4206598e-17 8.4671899e-12)
(7.3801935e-14 2.9109401e-27 -1.2133508e-23 4.9069798e-11 2.3402633e-07 2.3262306e-17 -7.6671559e-13 4.6525499e-17 8.9113447e-12)
(-6.3362515e-14 2.0371649e-27 2.6065467e-22 0 2.4593282e-07 2.4445817e-17 -4.5037522e-13 4.8892564e-17 9.3647248e-12)
(3.6782273e-14 2.2876203e-28 1.1969166e-22 0 2.5720483e-07 2.5566258e-17 0 5.113349e-17 9.7939446e-12)
(-4.5319717e-14 2.6727787e-27 -4.8579874e-22 -3.9178394e-11 2.6684696e-07 2.652469e-17 0 5.3050391e-17 1.0161102e-11)
(6.9450971e-14 -5.7988089e-28 -1.9491776e-22 0 2.7395011e-07 2.7230746e-17 -6.9966444e-13 5.4462529e-17 1.0431578e-11)
(-3.501713e-14 3.6332302e-27 6.7708115e-22 0 2.7788194e-07 2.7621572e-17 -3.9251898e-13 5.5244196e-17 1.0581296e-11)
(1.0656072e-13 -1.0708295e-27 -1.9992847e-22 0 2.7838849e-07 2.7671922e-17 -1.2953999e-12 5.5344898e-17 1.0600584e-11)
(-1.8433206e-14 -5.5089951e-27 -1.066351e-21 2.9841284e-11 2.7568023e-07 2.7402721e-17 4.6627006e-13 5.4806486e-17 1.0497458e-11)
(-4.2207171e-14 1.3982045e-26 1.157136e-21 -3.172801e-11 2.7033165e-07 2.687107e-17 4.9575016e-13 5.3743163e-17 1.0293793e-11)
(-9.3171822e-14 5.5363644e-28 8.1060521e-23 0 2.6309771e-07 2.6152014e-17 0 5.2305023e-17 1.0018336e-11)
(9.0564776e-14 1.1284959e-26 4.9267033e-22 0 2.547382e-07 2.5321074e-17 2.7197491e-13 5.0643113e-17 9.7000193e-12)
(-7.9270501e-14 7.3347231e-27 -4.9849775e-22 -3.6302389e-11 2.4617062e-07 2.4469454e-17 -2.8361242e-13 4.893984e-17 9.3737798e-12)
(-2.0090179e-13 -2.6037734e-27 -7.270355e-22 0 2.3836498e-07 2.3693571e-17 2.9767966e-13 4.7388044e-17 9.0765538e-12)
(-1.0396724e-13 2.0335425e-27 -5.5651177e-23 0 9.4454397e-08 9.3888033e-18 0 1.8777964e-17 3.596671e-12)
(9.2585856e-14 1.0501333e-27 1.8834428e-22 0 9.1780808e-08 9.1230475e-18 2.6691144e-13 1.8246442e-17 3.494865e-12)
(-7.2423483e-14 -1.8876509e-27 -3.2219948e-24 0 8.943265e-08 8.8896397e-18 -3.7375504e-13 1.7779618e-17 3.4054509e-12)
(5.421554e-15 -9.2537069e-28 1.9677125e-22 0 8.8122595e-08 8.7594197e-18 0 1.7519173e-17 3.3555661e-12)
(6.2079631e-14 -8.0789686e-28 -1.7017107e-22 0 8.7967436e-08 8.7439969e-18 0 1.7488327e-17 3.349658e-12)
(2.2003035e-14 2.2849069e-27 6.4328379e-23 0 8.8926751e-08 8.8393532e-18 -2.4722708e-13 1.7679043e-17 3.3861871e-12)
(-3.9881139e-14 -1.0876234e-27 9.477082e-23 1.6860563e-11 9.0956514e-08 9.0411124e-18 -1.3172315e-13 1.8082569e-17 3.4634772e-12)
(-4.9366072e-14 -2.7119713e-27 -1.1763685e-22 1.8498159e-11 9.4010614e-08 9.3446911e-18 0 1.8689738e-17 3.5797724e-12)
(3.8950456e-14 -1.3141179e-28 6.0235152e-24 0 9.8029993e-08 9.7442189e-18 6.5072535e-13 1.9488809e-17 3.7328239e-12)
(-2.8998876e-15 -6.7275934e-28 -5.7103108e-23 1.1974936e-11 1.0292357e-07 1.0230642e-17 -7.4843353e-13 2.0461674e-17 3.9191633e-12)
(-2.67797e-14 2.0044944e-27 4.8346653e-23 0 1.0854168e-07 1.0789084e-17 0 2.1578579e-17 4.1330919e-12)
(-2.5374894e-14 -5.8575372e-28 -8.741038e-23 -1.6543779e-11 1.146504e-07 1.1396293e-17 0 2.279302e-17 4.365702e-12)
(-1.9147425e-14 7.545616e-28 2.0332766e-22 0 1.2091738e-07 1.2019234e-17 4.59991e-13 2.4038925e-17 4.6043386e-12)
(5.2679313e-14 3.5709856e-27 1.2746449e-22 -2.3218501e-11 1.2691875e-07 1.2615772e-17 5.4418363e-13 2.5232025e-17 4.832861e-12)
(-1.9201825e-14 4.5360552e-27 -4.1516031e-22 0 1.3216361e-07 1.3137114e-17 8.503134e-13 2.6274727e-17 5.032577e-12)
(-3.0990551e-14 1.2133508e-27 1.9710218e-22 1.570918e-11 1.3619141e-07 1.3537479e-17 -3.6818391e-13 2.7075473e-17 5.1859491e-12)
(-4.4736495e-14 4.3164794e-27 -3.3599444e-23 0 1.3866651e-07 1.3783504e-17 -4.1739239e-13 2.7567534e-17 5.2801969e-12)
(4.0129094e-14 1.2842874e-27 2.1355872e-22 0 1.3943293e-07 1.3859686e-17 1.5462997e-13 2.7719901e-17 5.3093808e-12)
(-1.3581272e-14 -1.4151166e-26 -6.4092473e-22 -2.1586162e-11 1.385645e-07 1.3773364e-17 3.3728378e-13 2.7547253e-17 5.2763124e-12)
(-3.5358239e-14 -2.1034525e-27 6.7300113e-22 -2.3167904e-11 1.3632291e-07 1.355055e-17 -7.23997e-13 2.7101616e-17 5.1909565e-12)
(-8.7505546e-14 -5.1625432e-27 1.8883196e-22 4.913337e-11 1.3307089e-07 1.3227298e-17 1.9192723e-13 2.6455099e-17 5.0671248e-12)
(1.9497417e-13 -1.7469542e-27 -3.3460601e-22 0 1.2918463e-07 1.2841002e-17 -6.0575626e-13 2.5682492e-17 4.9191421e-12)
(-1.3723185e-13 -5.635642e-27 1.4033428e-22 0 1.2512924e-07 1.2437895e-17 -8.4817676e-13 2.4876263e-17 4.7647197e-12)
(-2.4136419e-14 2.4654305e-27 -9.4479165e-22 1.4332118e-11 1.2140474e-07 1.2067678e-17 -6.7181804e-13 2.4135816e-17 4.6228967e-12)
(3.0744166e-15 6.7334883e-28 1.093423e-22 6.5515471e-12 5.1536035e-08 5.1227017e-18 -2.5591981e-13 1.0245598e-17 1.962409e-12)
(4.7616934e-15 -3.9077485e-28 -5.6586282e-23 0 5.0328961e-08 5.002718e-18 0 1.0005627e-17 1.9164456e-12)
(3.9750583e-14 -1.1945267e-28 3.0259408e-24 0 4.9314971e-08 4.901927e-18 2.702048e-13 9.8040407e-18 1.8778345e-12)
(-1.4486346e-14 3.0228082e-28 6.2116122e-23 0 4.8875037e-08 4.8581975e-18 4.3997744e-14 9.7165799e-18 1.8610825e-12)
(8.3460031e-15 -5.2315808e-28 -9.5935132e-23 0 4.9071472e-08 4.8777231e-18 0 9.755632e-18 1.8685624e-12)
(5.0111534e-14 1.7725771e-28 1.6078445e-23 0 4.9884827e-08 4.9585709e-18 -9.3210845e-14 9.9173306e-18 1.8995337e-12)
(-6.5309885e-14 -1.4420241e-27 3.2667229e-23 -6.4432278e-12 5.1295964e-08 5.0988385e-18 1.0067543e-13 1.0197871e-17 1.9532675e-12)
(4.4762443e-14 -2.8370791e-27 1.4375749e-23 0 5.3285721e-08 5.2966211e-18 -5.594109e-14 1.0593444e-17 2.0290342e-12)
(5.6191414e-15 2.0467353e-27 8.9684882e-25 0 5.5828196e-08 5.549344e-18 -2.5497637e-13 1.1098899e-17 2.1258476e-12)
(-5.6710236e-15 -2.2544002e-27 5.1739231e-23 0 5.8879628e-08 5.8526576e-18 1.4833856e-13 1.1705538e-17 2.2420412e-12)
(3.2047527e-14 -1.9929434e-28 -7.1800644e-23 0 6.236298e-08 6.1989041e-18 -1.7537897e-13 1.2398044e-17 2.3746816e-12)
(-5.0343122e-15 2.9187705e-28 5.5905193e-23 0 6.6152578e-08 6.5755916e-18 -2.0949024e-13 1.3151434e-17 2.5189834e-12)
(5.2171832e-14 9.6300235e-29 -1.0198704e-22 8.039386e-12 7.0064675e-08 6.9644556e-18 -3.7684622e-13 1.3929176e-17 2.6679497e-12)
(-4.1809739e-15 -2.6732346e-27 -5.1052156e-23 0 7.3859316e-08 7.3416444e-18 -3.7563323e-13 1.4683568e-17 2.8124435e-12)
(2.3687638e-15 2.0786996e-27 -7.9934023e-23 1.1397893e-11 7.725197e-08 7.6788754e-18 4.4523021e-13 1.5358043e-17 2.9416303e-12)
(-8.6524981e-14 4.44578e-27 1.9325736e-22 0 7.9967251e-08 7.9487755e-18 -2.0806205e-13 1.5897854e-17 3.0450238e-12)
(1.1606277e-13 -4.7724975e-27 -1.817299e-22 1.5278003e-11 8.1793813e-08 8.1303364e-18 1.193594e-13 1.6260982e-17 3.1145764e-12)
(4.2942538e-14 -2.5504997e-27 3.7798541e-22 0 8.261902e-08 8.2123623e-18 0 1.6425037e-17 3.1459989e-12)
(-9.7149745e-14 -1.4953915e-27 -2.9352598e-22 9.483806e-12 8.246338e-08 8.1968916e-18 -1.4818447e-13 1.6394095e-17 3.1400724e-12)
(2.3452151e-14 -3.2823146e-29 -3.7131875e-23 0 8.1461812e-08 8.0973353e-18 -1.6086294e-13 1.6194979e-17 3.1019343e-12)
(-5.9700454e-14 2.1532967e-27 4.1243555e-22 1.1033616e-11 7.9816312e-08 7.933772e-18 2.5860037e-13 1.5867846e-17 3.0392763e-12)
(1.730605e-13 2.2672981e-27 -5.1394012e-22 0 7.7744934e-08 7.7278762e-18 6.4103252e-13 1.5456047e-17 2.9604016e-12)
(-8.8261356e-14 3.0123236e-27 4.2815164e-22 1.241794e-11 7.5526043e-08 7.5073176e-18 4.8507578e-13 1.5014921e-17 2.8759098e-12)
(3.8323432e-14 -9.5750602e-27 -5.2725183e-22 0 7.3465534e-08 7.3025022e-18 6.1952961e-13 1.4605283e-17 2.7974489e-12)
(5.11051e-14 -8.3656699e-28 1.0364193e-22 5.1808438e-12 3.0511648e-08 3.0328695e-18 2.4285205e-13 6.0658544e-18 1.1618343e-12)
(-1.8659612e-14 -2.8185888e-27 -5.8264866e-23 0 2.9946118e-08 2.9766556e-18 0 5.9534246e-18 1.1402998e-12)
(-2.0409514e-14 1.4188669e-28 2.7176521e-23 4.6633143e-12 2.9507609e-08 2.9330676e-18 -7.2864286e-14 5.8662469e-18 1.1236021e-12)
(-1.2584849e-14 -1.427743e-28 -2.7346531e-23 0 2.9417522e-08 2.924113e-18 1.4429944e-13 5.8483374e-18 1.1201718e-12)
(5.5057005e-16 1.1300076e-28 3.5841114e-23 -9.4773479e-12 2.9712022e-08 2.9533864e-18 -2.9616712e-13 5.9068853e-18 1.1313858e-12)
(-4.4311138e-14 1.2589801e-27 -4.5172393e-23 0 3.0381147e-08 3.0198977e-18 1.1788269e-13 6.0399104e-18 1.1568651e-12)
(4.1054684e-14 2.3212216e-27 3.2116681e-23 -5.5070165e-12 3.1416534e-08 3.1228156e-18 4.3023566e-14 6.2457501e-18 1.1962909e-12)
(-3.3600477e-14 1.2896346e-29 2.4701248e-24 0 3.2810618e-08 3.261388e-18 -9.6889153e-14 6.5229003e-18 1.2493754e-12)
(-3.7069768e-14 -6.519266e-28 -1.7680903e-23 0 3.4552245e-08 3.4345064e-18 0 6.8691435e-18 1.3156937e-12)
(-1.1258686e-14 1.8132623e-27 6.9599318e-23 4.2132287e-12 3.6619679e-08 3.6400101e-18 1.316634e-13 7.2801588e-18 1.3944182e-12)
(5.5544775e-14 2.2478072e-27 -5.2648303e-23 0 3.8970905e-08 3.8737229e-18 7.874721e-14 7.7475932e-18 1.4839491e-12)
(-3.6639473e-14 1.5691974e-28 -6.4351593e-24 0 4.1533668e-08 4.1284625e-18 1.4273106e-13 8.2570822e-18 1.581535e-12)
(3.3067386e-14 -6.188034e-28 -1.1852362e-22 0 4.4198686e-08 4.3933663e-18 1.1544615e-13 8.7868999e-18 1.6830146e-12)
(-6.8651448e-14 -1.012271e-27 -6.3125739e-24 8.943893e-12 4.6819307e-08 4.6538571e-18 0 9.3078914e-18 1.7828036e-12)
(5.6285914e-14 -3.1357645e-27 1.7119985e-22 -1.0733768e-11 4.9216901e-08 4.8921789e-18 -1.6771512e-13 9.784544e-18 1.8741001e-12)
(-8.4108908e-14 2.8113667e-27 4.364522e-23 0 5.1212536e-08 5.0905457e-18 -9.9256221e-14 1.0181285e-17 1.9500907e-12)
(3.8225087e-14 -3.6291311e-27 -2.0815752e-22 -7.3878235e-12 5.2661218e-08 5.2345453e-18 0 1.046929e-17 2.0052542e-12)
(4.6867923e-14 1.4739216e-27 2.8862172e-22 0 5.3475502e-08 5.3154855e-18 1.316629e-13 1.0631173e-17 2.0362608e-12)
(2.2238948e-14 -2.8215063e-27 -8.8423988e-23 0 5.3650962e-08 5.3329262e-18 -2.2099313e-13 1.0666055e-17 2.042942e-12)
(-3.124986e-14 -4.0194913e-27 -2.7258348e-22 -1.0374007e-11 5.3258689e-08 5.2939341e-18 2.4314079e-13 1.058807e-17 2.0280049e-12)
(9.8632289e-14 1.09965e-27 1.7688711e-22 0 5.2418136e-08 5.2103828e-18 2.6391225e-13 1.0420964e-17 1.995998e-12)
(7.5519711e-14 -1.8889778e-27 1.4590132e-22 0 5.1265207e-08 5.0957813e-18 -9.4564573e-14 1.0191757e-17 1.9520963e-12)
(-2.1350571e-13 1.6055065e-27 1.5218415e-22 0 4.9980939e-08 4.9681245e-18 5.0629595e-14 9.9364381e-18 1.9031935e-12)
(2.1803053e-13 -6.2070501e-28 -1.6061423e-22 0 4.8769958e-08 4.8477525e-18 2.1761133e-13 9.6956897e-18 1.8570813e-12)
(-8.0996161e-14 7.2505138e-28 1.5253095e-22 0 1.914873e-08 1.9033911e-18 -1.4244728e-13 3.8068547e-18 7.2915273e-13)
(-5.0926733e-15 -5.5578457e-28 -8.053492e-23 2.1627025e-12 1.8882543e-08 1.8769321e-18 -3.3792226e-14 3.7539356e-18 7.1901678e-13)
(-3.8980724e-14 4.6258748e-28 8.2330952e-23 0 1.8705701e-08 1.8593539e-18 1.308299e-13 3.7187785e-18 7.1228291e-13)
(-3.0722036e-15 -2.3787504e-27 -2.5442003e-22 0 1.8755103e-08 1.8642644e-18 -3.2790256e-14 3.7285999e-18 7.1416405e-13)
(-2.2400003e-14 -9.6205555e-28 -2.7367258e-23 0 1.9053216e-08 1.893897e-18 3.4094737e-14 3.7878661e-18 7.2551572e-13)
(-3.5727827e-14 5.2033223e-28 2.9656295e-22 -2.347139e-12 1.9594856e-08 1.9477362e-18 1.1002214e-13 3.8955465e-18 7.4614048e-13)
(8.6079786e-14 -6.1699029e-28 1.4708069e-22 0 2.037671e-08 2.0254528e-18 -2.0343643e-14 4.0509827e-18 7.7591223e-13)
(1.06161e-14 -2.7364987e-27 -6.6650793e-22 0 2.1396547e-08 2.126825e-18 1.1601186e-13 4.253731e-18 8.1474597e-13)
(-1.8556417e-14 1.6659011e-27 -1.3566181e-23 -3.469645e-12 2.2650256e-08 2.2514441e-18 1.6263961e-13 4.5029739e-18 8.6248517e-13)
(3.7263978e-14 2.0681709e-27 3.7135165e-22 0 2.4127245e-08 2.3982574e-18 -1.2922817e-13 4.7966061e-18 9.1872654e-13)
(-5.8171068e-14 -8.5746508e-28 -3.7416199e-22 2.5024111e-12 2.5804025e-08 2.56493e-18 0 5.1299577e-18 9.8257564e-13)
(1.5879873e-14 2.6433918e-27 2.4967333e-22 0 2.7637411e-08 2.7471693e-18 9.5599571e-14 5.4944432e-18 1.052388e-12)
(-1.8730346e-14 2.9528243e-28 -3.3463288e-23 -3.7558071e-12 2.9559438e-08 2.9382195e-18 2.9342243e-14 5.8765508e-18 1.1255757e-12)
(3.2325944e-14 7.8042106e-28 6.6737525e-23 0 3.1476064e-08 3.1287329e-18 -7.191915e-14 6.2575848e-18 1.1985577e-12)
(-1.2176562e-14 3.014234e-27 4.0794549e-23 0 3.3269305e-08 3.3069817e-18 -8.7442911e-14 6.6140893e-18 1.2668414e-12)
(-4.176197e-14 -2.6184833e-27 -9.907976e-23 0 3.4816605e-08 3.4607839e-18 2.0988881e-13 6.9216997e-18 1.3257601e-12)
(-4.4308888e-14 1.9184176e-27 -1.3124892e-22 0 3.6013087e-08 3.5797147e-18 6.192382e-14 7.1595657e-18 1.3713202e-12)
(-1.2466155e-14 2.8100043e-27 1.807176e-22 0 3.678824e-08 3.6567652e-18 0 7.3136697e-18 1.4008368e-12)
(8.3786297e-15 -5.0546626e-27 2.3523561e-23 5.2150825e-12 3.712551e-08 3.6902899e-18 1.6297133e-13 7.3807204e-18 1.4136795e-12)
(8.8330339e-14 -6.1963506e-29 -2.9321882e-23 5.8255308e-12 3.7060614e-08 3.6838393e-18 9.1023918e-14 7.3678188e-18 1.4112084e-12)
(4.8055212e-14 2.4210398e-27 -1.5142649e-22 0 3.6665794e-08 3.644594e-18 -2.5063287e-13 7.2893268e-18 1.3961742e-12)
(-2.4035375e-13 1.6384696e-27 3.1382722e-22 0 3.6029128e-08 3.5813092e-18 2.1851109e-13 7.1627548e-18 1.3719311e-12)
(3.1649656e-13 3.0050368e-27 -1.513729e-22 0 3.5274661e-08 3.5063149e-18 5.9237143e-14 7.0127632e-18 1.3432022e-12)
(-9.208526e-15 3.3766405e-27 -9.3916288e-23 0 3.4547617e-08 3.4340464e-18 -6.4378756e-14 6.8682236e-18 1.3155175e-12)
(6.4026339e-14 1.7945104e-28 4.1160007e-23 0 1.2677995e-08 1.2601976e-18 -3.5403531e-14 2.5204431e-18 4.8275758e-13)
(-1.0089712e-13 9.8686493e-29 1.8902094e-23 0 1.2554261e-08 1.2478983e-18 -6.7693522e-14 2.4958442e-18 4.7804598e-13)
(3.2572775e-14 -2.0472455e-27 -1.6626825e-22 2.1160442e-12 1.249652e-08 1.2421589e-18 1.6531596e-14 2.4843651e-18 4.7584731e-13)
(6.2794375e-14 -1.9861192e-27 -2.0626922e-23 0 1.2594494e-08 1.2518975e-18 -1.0051956e-13 2.5038427e-18 4.79578e-13)
(1.4278327e-14 -1.8785939e-27 -1.9760432e-22 -2.2559626e-12 1.2863124e-08 1.2785994e-18 -3.5249416e-14 2.5572475e-18 4.8980699e-13)
(1.1067312e-14 1.6634435e-27 3.1861063e-22 2.4560448e-12 1.3299778e-08 1.322003e-18 -1.918785e-14 2.6440563e-18 5.0643407e-13)
(1.8769058e-14 6.1409669e-28 1.8472899e-23 -2.7577743e-12 1.3903598e-08 1.382023e-18 1.2927067e-13 2.7640986e-18 5.2942658e-13)
(-7.3551172e-15 -1.8128873e-27 -3.4723462e-22 -3.1825736e-12 1.4674843e-08 1.458685e-18 -4.9727713e-14 2.9174255e-18 5.5879432e-13)
(3.723429e-14 -1.3615724e-28 -2.6079121e-23 -1.8804548e-12 1.5612835e-08 1.5519218e-18 -8.8146318e-14 3.1039027e-18 5.9451156e-13)
(-5.4533723e-14 1.1817815e-27 3.0783508e-22 -2.2663285e-12 1.6712824e-08 1.6612611e-18 3.5411383e-14 3.3225855e-18 6.3639736e-13)
(-3.6215155e-14 -1.49245e-27 -2.1939303e-22 2.7730688e-12 1.7961556e-08 1.7853856e-18 1.299876e-13 3.5708391e-18 6.8394707e-13)
(5.6865524e-14 7.5603906e-28 1.8588488e-22 0 1.9332448e-08 1.9216528e-18 -1.0710864e-13 3.8433787e-18 7.3614843e-13)
(7.6682125e-15 -2.3544884e-27 -2.4696767e-22 4.2556735e-12 2.0781681e-08 2.0657071e-18 -6.6494898e-14 4.1314928e-18 7.9133287e-13)
(4.3460208e-14 7.0250734e-28 1.9780491e-22 2.6388444e-12 2.224656e-08 2.2113166e-18 -4.1231943e-14 4.4227175e-18 8.4711311e-13)
(-5.1748459e-16 -7.6184243e-29 -1.4592085e-23 6.498902e-12 2.3645939e-08 2.3504154e-18 5.0772672e-14 4.7009204e-18 9.003992e-13)
(-9.9971457e-14 -1.7166129e-27 -1.3926433e-22 0 2.4892394e-08 2.4743135e-18 0 4.9487213e-18 9.4786219e-13)
(6.6276472e-14 2.2298048e-28 3.2644371e-22 0 2.5907127e-08 2.5751784e-18 7.398663e-14 5.1504548e-18 9.8650158e-13)
(-7.9193371e-14 1.9468713e-27 2.7278134e-22 0 2.6632021e-08 2.6472331e-18 -1.3053135e-13 5.2945671e-18 1.0141044e-12)
(8.1392045e-14 -5.8103497e-28 -4.1956779e-22 0 2.7045055e-08 2.6882889e-18 7.5362423e-14 5.3766801e-18 1.0298321e-12)
(4.9823051e-14 2.1941665e-28 4.476035e-23 -3.650123e-12 2.7161602e-08 2.6998736e-18 -1.4258293e-13 5.39985e-18 1.0342699e-12)
(-4.8267635e-14 1.6975582e-27 -6.6394934e-23 0 2.7025415e-08 2.6863367e-18 1.9143349e-13 5.3727756e-18 1.0290842e-12)
(3.0303542e-14 2.7185047e-27 5.2069366e-22 0 2.6694962e-08 2.6534894e-18 -1.7647676e-13 5.3070799e-18 1.016501e-12)
(-8.230394e-16 -4.3451281e-27 -8.9178739e-22 4.9678298e-12 2.6258615e-08 2.6101164e-18 -1.9405585e-13 5.2203322e-18 9.9988568e-13)
(-3.1814466e-14 4.9095351e-27 9.403566e-22 -5.4680707e-12 2.5824275e-08 2.5669428e-18 -4.2719303e-14 5.1339834e-18 9.833467e-13)
(1.4873051e-14 1.5185248e-28 2.5176313e-23 0 8.8805252e-09 8.8272761e-19 4.0772664e-14 1.7654888e-18 3.3815606e-13)
(-2.3487412e-14 -4.1158516e-28 -9.0106844e-23 0 8.8246004e-09 8.7716867e-19 1.9597222e-14 1.7543707e-18 3.3602654e-13)
(-4.7161184e-15 -2.8037799e-28 -2.7551814e-22 1.233932e-12 8.819493e-09 8.7666099e-19 1.9280188e-14 1.7533554e-18 3.3583206e-13)
(1.1063065e-14 1.9328693e-27 1.585656e-22 1.2614817e-12 8.9276923e-09 8.8741604e-19 -3.9421302e-14 1.7748659e-18 3.3995211e-13)
(-1.3454271e-14 3.9831778e-28 1.0841236e-22 0 9.1598571e-09 9.1049331e-19 0 1.8210213e-18 3.4879257e-13)
(-2.9975738e-15 -1.1698004e-27 -8.2756346e-23 -2.9477018e-12 9.514757e-09 9.457705e-19 -1.151446e-14 1.891577e-18 3.6230659e-13)
(2.2774346e-14 2.1426849e-27 -9.0508538e-23 0 9.9927284e-09 9.9328104e-19 -5.2247048e-14 1.9865999e-18 3.8050697e-13)
(-1.0645726e-15 1.1264279e-27 2.8903349e-23 -1.9489091e-12 1.0595159e-08 1.0531629e-18 -6.090341e-14 2.1063659e-18 4.0344656e-13)
(3.8469515e-15 -8.7544934e-28 -8.4066203e-23 0 1.1323025e-08 1.125513e-18 0 2.2510689e-18 4.3116251e-13)
(5.5049684e-14 -1.349786e-28 -5.9765735e-23 0 1.2174651e-08 1.210165e-18 5.5268652e-14 2.4203761e-18 4.6359108e-13)
(-6.6506879e-15 1.1392318e-27 9.2545731e-23 0 1.3142536e-08 1.3063731e-18 -1.0922281e-13 2.6127959e-18 5.0044655e-13)
(7.789232e-14 -1.7511845e-27 -1.7862952e-22 0 1.420978e-08 1.4124575e-18 3.4069742e-14 2.8249689e-18 5.4108547e-13)
(-7.0676258e-14 1.6852533e-27 1.9173302e-22 0 1.5347017e-08 1.5254994e-18 8.5434703e-14 3.0510568e-18 5.8438963e-13)
(-8.7546931e-15 2.4053079e-27 1.7331234e-22 0 1.6510735e-08 1.6411734e-18 0 3.2824093e-18 6.2870215e-13)
(1.5375902e-13 1.8276536e-27 2.4780734e-22 0 1.7642838e-08 1.7537048e-18 1.3332074e-13 3.5074765e-18 6.7181078e-13)
(-1.1394265e-13 -2.8476138e-27 -5.4542281e-22 0 1.8678542e-08 1.8566542e-18 -1.2317376e-13 3.7133792e-18 7.1124873e-13)
(1.9664886e-14 3.6054738e-27 6.9058088e-22 3.1896287e-12 1.9556686e-08 1.9439421e-18 -2.4918974e-14 3.8879582e-18 7.4468704e-13)
(-8.7044429e-14 -2.1231553e-28 -4.0666236e-23 0 2.0228606e-08 2.0107312e-18 -5.9470192e-14 4.021539e-18 7.7027266e-13)
(6.3366796e-14 -1.2587598e-27 -5.753047e-22 -2.2309754e-12 2.0670482e-08 2.0546539e-18 -6.9717982e-14 4.1093859e-18 7.8709859e-13)
(8.0530375e-14 -1.0524837e-28 1.4166293e-22 2.5719861e-12 2.0886034e-08 2.0760798e-18 -4.0187283e-14 4.1522386e-18 7.9530645e-13)
(-1.1562823e-13 1.8944434e-27 -1.3616697e-22 0 2.0901519e-08 2.077619e-18 9.1315831e-14 4.1553171e-18 7.9589611e-13)
(5.8894799e-14 4.1788753e-27 8.0040836e-22 0 2.0756536e-08 2.0632076e-18 -7.6894997e-14 4.1264938e-18 7.9037537e-13)
(-1.0720485e-13 -4.4716953e-27 -1.1414829e-21 0 2.0516307e-08 2.0393288e-18 -2.8582166e-14 4.0787353e-18 7.8122787e-13)
(2.18455e-13 2.7853278e-27 9.7346651e-22 0 2.0264287e-08 2.0142779e-18 2.2308124e-13 4.0286326e-18 7.7163135e-13)
(1.0151726e-14 2.1467045e-27 6.9555949e-23 0 6.6102709e-09 6.5706346e-19 6.2634365e-14 1.3141519e-18 2.5170844e-13)
(-2.7117547e-14 -2.33052e-28 -2.0940928e-22 8.5931455e-13 6.5864211e-09 6.5469279e-19 6.7133949e-14 1.3094105e-18 2.5080029e-13)
(-4.436459e-14 -8.7177896e-29 -1.1606993e-23 -8.4958175e-13 6.6033252e-09 6.5637305e-19 -3.9824145e-14 1.3127711e-18 2.5144396e-13)
(8.7812409e-16 -1.4536315e-27 1.4926847e-23 0 6.7073864e-09 6.6671678e-19 5.4638643e-14 1.3334589e-18 2.5540645e-13)
(2.2019723e-14 8.0408081e-28 1.3158512e-22 0 6.90675e-09 6.865336e-19 4.3858392e-14 1.3730933e-18 2.6299789e-13)
(-3.2538778e-14 -1.4801906e-27 -8.4636406e-23 -1.03717e-12 7.2009517e-09 7.1577736e-19 -3.2411563e-14 1.431582e-18 2.7420062e-13)
(-2.3965415e-14 -8.1460715e-28 -1.5602724e-22 0 7.5908893e-09 7.5453731e-19 9.2649503e-15 1.5091033e-18 2.8904881e-13)
(-2.0041721e-14 1.4563484e-27 -2.1590056e-23 0 8.0784209e-09 8.0299813e-19 -8.7074772e-14 1.6060268e-18 3.0761323e-13)
(5.2651137e-14 1.264748e-27 2.0209557e-22 0 8.6652712e-09 8.6133128e-19 -6.5434757e-14 1.7226954e-18 3.2995954e-13)
(-7.933722e-14 -1.1311451e-28 1.2596752e-22 0 9.3513639e-09 9.2952916e-19 -3.2080657e-14 1.8590937e-18 3.5608484e-13)
(1.6064625e-14 -5.905692e-28 -1.1311573e-22 0 1.0132422e-08 1.0071666e-18 -6.9841316e-14 2.0143716e-18 3.8582626e-13)
(-3.6436532e-14 -8.0983907e-28 1.141672e-22 0 1.099722e-08 1.0931279e-18 2.5077758e-14 2.1862973e-18 4.1875638e-13)
(2.3966783e-14 -4.352215e-28 1.1101576e-22 0 1.1925101e-08 1.1853596e-18 1.1087483e-13 2.3707644e-18 4.540886e-13)
(-2.6084674e-14 -1.2126553e-27 -4.1641072e-22 1.2804534e-12 1.2884387e-08 1.280713e-18 -4.0014169e-14 2.5614747e-18 4.9061664e-13)
(-5.8862081e-14 9.2301461e-29 -9.7982716e-23 0 1.3831543e-08 1.3748606e-18 -2.2619974e-13 2.7497736e-18 5.2668282e-13)
(-1.3411502e-13 -2.5223486e-27 -4.8312255e-22 -2.0007864e-12 1.4716546e-08 1.4628303e-18 -1.4068029e-13 2.9257163e-18 5.6038231e-13)
(1.7478892e-13 5.1507376e-27 8.3946124e-22 0 1.5490314e-08 1.5397432e-18 5.7534513e-14 3.079545e-18 5.8984616e-13)
(-1.5258665e-13 -7.0309542e-29 -1.3466864e-23 0 1.6111424e-08 1.6014818e-18 1.8522872e-13 3.2030245e-18 6.1349704e-13)
(8.0562834e-14 1.0586135e-27 1.3049928e-23 -3.517843e-12 1.6556206e-08 1.6456932e-18 -5.4966297e-14 3.2914491e-18 6.3043359e-13)
(-2.5615601e-14 -2.3959539e-27 -4.5891331e-22 0 1.6821962e-08 1.6721095e-18 2.5676005e-13 3.3442826e-18 6.4055316e-13)
(1.3163606e-14 -2.9140392e-28 6.2240139e-22 2.3641767e-12 1.6924303e-08 1.6822822e-18 -2.5858182e-13 3.3646284e-18 6.4445012e-13)
(-1.8799832e-13 -2.3495527e-27 -4.3391654e-22 -2.6884111e-12 1.6890785e-08 1.6789505e-18 8.4012846e-14 3.3579649e-18 6.4317382e-13)
(1.0016408e-13 6.8319671e-27 4.3577158e-22 0 1.6771414e-08 1.6670849e-18 3.7931932e-13 3.3342334e-18 6.3862836e-13)
(-2.7007595e-13 -5.1705451e-27 -1.0723699e-21 0 1.6633297e-08 1.6533561e-18 -2.1387605e-13 3.3067751e-18 6.3336909e-13)
(9.4014095e-15 -5.9068581e-28 -1.2187634e-22 -7.2914902e-13 5.2368838e-09 5.2054826e-19 0 1.0411163e-18 1.9941208e-13)
(2.6861735e-14 -1.6445564e-28 -9.8617842e-24 -7.0458657e-13 5.2280926e-09 5.1967441e-19 -3.8532078e-14 1.0393686e-18 1.9907733e-13)
(4.8124028e-14 2.5059865e-28 4.799886e-23 0 5.2533678e-09 5.2218677e-19 3.8205179e-14 1.0443934e-18 2.0003977e-13)
(-1.0757863e-14 -2.1954124e-28 -2.474649e-23 0 5.3494534e-09 5.3173772e-19 5.6401495e-15 1.0634957e-18 2.0369855e-13)
(-3.7432378e-14 -1.0779859e-27 -1.3201752e-22 -7.7661007e-13 5.5229768e-09 5.4898602e-19 0 1.0979929e-18 2.1030604e-13)
(-2.4453871e-15 5.2688795e-28 1.6315755e-22 0 5.7738818e-09 5.7392607e-19 -6.7622766e-15 1.147874e-18 2.198601e-13)
(3.5464662e-14 -5.8595617e-28 -6.4528806e-23 0 6.1033073e-09 6.0667109e-19 -3.1097802e-14 1.2133653e-18 2.3240409e-13)
(4.5715125e-14 2.7225487e-28 8.0316617e-23 0 6.5132654e-09 6.4742108e-19 1.1018327e-13 1.2948668e-18 2.4801463e-13)
(-2.4927528e-14 5.1023201e-28 1.6581348e-22 -1.4203127e-12 7.0057802e-09 6.9637724e-19 6.6577157e-14 1.392781e-18 2.667688e-13)
(2.0683407e-14 9.7101494e-28 1.827482e-23 -8.746421e-13 7.581573e-09 7.5361127e-19 5.4665131e-14 1.5072512e-18 2.8869406e-13)
(-1.7920053e-14 -5.8597437e-28 -1.646388e-22 1.0931711e-12 8.238154e-09 8.1887567e-19 8.5403993e-14 1.6377825e-18 3.1369561e-13)
(6.1516418e-14 5.5002335e-28 2.3767322e-22 0 8.9676014e-09 8.9138302e-19 1.0782706e-14 1.7828e-18 3.4147179e-13)
(-1.1148466e-13 1.1629038e-27 -2.9181273e-23 0 9.7544836e-09 9.6959941e-19 -2.052833e-13 1.9392357e-18 3.7143499e-13)
(1.092822e-13 -1.6968339e-27 -4.8491703e-22 -2.223912e-12 1.0574394e-08 1.0510988e-18 1.0424587e-13 2.1022377e-18 4.0265586e-13)
(1.5493826e-14 4.2213714e-27 4.045479e-22 -1.4046265e-12 1.1392969e-08 1.1324655e-18 2.1947289e-13 2.264974e-18 4.3382586e-13)
(-6.0949983e-14 -2.4839141e-27 -1.3865254e-22 0 1.2169761e-08 1.2096789e-18 0 2.4194039e-18 4.6340486e-13)
(-6.7055765e-14 3.483762e-27 4.5901905e-22 0 1.2863905e-08 1.2786771e-18 1.6969726e-13 2.5574029e-18 4.8983673e-13)
(8.3131037e-14 -9.0209257e-28 -2.9946488e-22 0 1.34394e-08 1.3358815e-18 -2.0645819e-13 2.6718139e-18 5.1175066e-13)
(-5.0780216e-14 9.9316534e-28 5.7554947e-23 0 1.3873597e-08 1.3790408e-18 2.2240111e-13 2.7581342e-18 5.2828416e-13)
(2.1081266e-15 -2.8754718e-27 -7.0705434e-22 0 1.4160513e-08 1.4075604e-18 -1.0188911e-13 2.8151743e-18 5.3920946e-13)
(3.3282533e-15 3.7715705e-27 8.5851954e-22 2.1635624e-12 1.4309463e-08 1.4223661e-18 -2.197368e-13 2.8447863e-18 5.4488124e-13)
(-3.606419e-16 -2.2782871e-27 -3.208774e-22 0 1.4340467e-08 1.4254479e-18 -7.7565798e-14 2.85095e-18 5.4606182e-13)
(3.0098272e-14 3.9327807e-27 8.5486269e-22 -2.8256771e-12 1.4293589e-08 1.4207882e-18 -3.5320963e-13 2.8416306e-18 5.442768e-13)
(2.2948586e-14 -7.1598251e-27 -1.6793198e-21 1.6060191e-12 1.4224969e-08 1.4139674e-18 7.5282147e-14 2.8279886e-18 5.4166385e-13)
(-1.1530792e-14 1.4832331e-28 -1.0729187e-22 0 4.4000094e-09 4.3736263e-19 -6.6607882e-14 8.747419e-19 1.6754526e-13)
(-1.1443758e-14 3.5713395e-28 5.9659609e-23 0 4.3982057e-09 4.3718333e-19 7.5114517e-14 8.7438331e-19 1.6747657e-13)