/*--------------------------------*- C++ -*----------------------------------*\
| =========                 |                                                 |
| \\      /  F ield         | OpenFOAM: The Open Source CFD Toolbox           |
|  \\    /   O peration     | Version:  v1912                                 |
|   \\  /    A nd           | Website:  www.openfoam.com                      |
|    \\/     M anipulation  |                                                 |
\*---------------------------------------------------------------------------*/
FoamFile
{
    version     2.0;
    format      ascii;
    class       volScalarField;
    location    "60000";
    object      nut;
}
// * * * * * * * * * * * * * * * * * * * * * * * * * * * * * * * * * * * * * //

dimensions      [0 2 -1 0 0 0 0];


internalField   nonuniform List<scalar> 
4520
(
1.3941863e-07
1.3391515e-07
1.2695315e-07
1.251243e-07
1.1993734e-07
1.2128102e-07
1.1899791e-07
1.2392488e-07
1.2744904e-07
1.3224053e-07
1.4468734e-07
1.5115931e-07
1.6643923e-07
1.7811129e-07
1.9360639e-07
2.0633008e-07
2.1955151e-07
2.2879591e-07
2.3626269e-07
2.4019862e-07
2.4337967e-07
2.4318274e-07
2.4353102e-07
2.4379443e-07
1.3937383e-07
1.3396924e-07
1.2677138e-07
1.2522159e-07
1.1935171e-07
1.2105168e-07
1.1727295e-07
1.2205691e-07
1.2439262e-07
1.2876744e-07
1.3758366e-07
1.4844548e-07
1.5901745e-07
1.7763672e-07
1.9101028e-07
2.1035384e-07
2.2157898e-07
2.3445912e-07
2.3885923e-07
2.4450501e-07
2.4481448e-07
2.4495467e-07
2.447638e-07
2.4440851e-07
1.3945048e-07
1.3388649e-07
1.2690466e-07
1.250741e-07
1.1949567e-07
1.2083927e-07
1.1734108e-07
1.2179149e-07
1.2421248e-07
1.2827867e-07
1.3828609e-07
1.4489007e-07
1.6255474e-07
1.7343859e-07
1.9075849e-07
2.0472392e-07
2.1826241e-07
2.2774657e-07
2.3452369e-07
2.381585e-07
2.4044823e-07
2.4072483e-07
2.4099855e-07
2.4112992e-07
1.39522e-07
1.3379836e-07
1.2702252e-07
1.2495621e-07
1.196242e-07
1.2072468e-07
1.1741397e-07
1.2168192e-07
1.2418821e-07
1.2812071e-07
1.3818638e-07
1.4485496e-07
1.62854e-07
1.7319733e-07
1.9076019e-07
2.0495708e-07
2.1885489e-07
2.2890344e-07
2.3589301e-07
2.3996071e-07
2.4218234e-07
2.4247199e-07
2.4275117e-07
2.4294408e-07
1.3956497e-07
1.3375127e-07
1.2708525e-07
1.2486247e-07
1.1968008e-07
1.206223e-07
1.1743517e-07
1.2159251e-07
1.2416957e-07
1.2800019e-07
1.3819311e-07
1.4482435e-07
1.6384453e-07
1.7253477e-07
1.9136217e-07
2.0486257e-07
2.1955118e-07
2.2955934e-07
2.3707895e-07
2.4109354e-07
2.4360333e-07
2.4392367e-07
2.4395068e-07
2.443954e-07
1.3960266e-07
1.3369688e-07
1.271117e-07
1.2476504e-07
1.1969245e-07
1.2051398e-07
1.1742553e-07
1.2149387e-07
1.2411204e-07
1.2793914e-07
1.3804139e-07
1.4468111e-07
1.6473624e-07
1.7127687e-07
1.9263904e-07
2.0434358e-07
2.2100798e-07
2.3005216e-07
2.3896323e-07
2.4250859e-07
2.4561759e-07
2.462249e-07
2.4625287e-07
2.4679564e-07
1.3963046e-07
1.3363077e-07
1.2708916e-07
1.2462157e-07
1.1962371e-07
1.2034254e-07
1.17324e-07
1.2132436e-07
1.2395435e-07
1.2782482e-07
1.377262e-07
1.4472613e-07
1.6400327e-07
1.714595e-07
1.9343872e-07
2.0491241e-07
2.2289154e-07
2.3127564e-07
2.4151261e-07
2.4459092e-07
2.4864864e-07
2.4878425e-07
2.493822e-07
2.5002712e-07
1.3964661e-07
1.3354537e-07
1.2699688e-07
1.2442134e-07
1.1944572e-07
1.2010258e-07
1.1710589e-07
1.2108765e-07
1.2363593e-07
1.2773598e-07
1.3627614e-07
1.4384645e-07
1.6204705e-07
1.7232087e-07
1.935421e-07
2.0638276e-07
2.2448917e-07
2.3401206e-07
2.4495264e-07
2.4841665e-07
2.5329947e-07
2.5410594e-07
2.5420261e-07
2.5507497e-07
1.3965058e-07
1.3343804e-07
1.2683071e-07
1.2416542e-07
1.1915426e-07
1.1980345e-07
1.1676869e-07
1.2080058e-07
1.2336821e-07
1.2751769e-07
1.3629224e-07
1.4400621e-07
1.626972e-07
1.7370839e-07
1.9523249e-07
2.0912599e-07
2.2792834e-07
2.3885958e-07
2.5016967e-07
2.5464541e-07
2.5922647e-07
2.6064406e-07
2.6083758e-07
2.6158191e-07
1.3964474e-07
1.3331695e-07
1.2661759e-07
1.2388579e-07
1.1879893e-07
1.1949194e-07
1.1637199e-07
1.2051604e-07
1.2309798e-07
1.2733617e-07
1.3640947e-07
1.4474943e-07
1.6359455e-07
1.7525286e-07
1.980931e-07
2.1367263e-07
2.3325928e-07
2.4597161e-07
2.5751238e-07
2.6330101e-07
2.6759994e-07
2.6974202e-07
2.6987761e-07
2.7077096e-07
1.3963485e-07
1.3319822e-07
1.2640749e-07
1.2363286e-07
1.1846642e-07
1.1922828e-07
1.1601343e-07
1.2029039e-07
1.2290734e-07
1.2717298e-07
1.3681981e-07
1.4558459e-07
1.6445097e-07
1.7731868e-07
2.0057977e-07
2.1870902e-07
2.3879217e-07
2.5425733e-07
2.6634703e-07
2.7399098e-07
2.781895e-07
2.8108541e-07
2.8128191e-07
2.8191627e-07
1.3962476e-07
1.3309883e-07
1.2624471e-07
1.2344713e-07
1.1822589e-07
1.1904918e-07
1.1576776e-07
1.2015123e-07
1.2277498e-07
1.2728626e-07
1.3594131e-07
1.4841772e-07
1.6297007e-07
1.8214752e-07
2.01764e-07
2.2400879e-07
2.4372774e-07
2.6202191e-07
2.7480123e-07
2.8432945e-07
2.8897022e-07
2.9267837e-07
2.930422e-07
2.9376154e-07
1.396195e-07
1.3302844e-07
1.2614548e-07
1.2333919e-07
1.180903e-07
1.1895528e-07
1.1564387e-07
1.200913e-07
1.2280585e-07
1.2732163e-07
1.368292e-07
1.5198243e-07
1.6203943e-07
1.8774827e-07
2.0219327e-07
2.2984077e-07
2.4875706e-07
2.7012759e-07
2.8299712e-07
2.9441395e-07
2.9878535e-07
3.0313087e-07
3.0346769e-07
3.039334e-07
1.39652e-07
1.3296572e-07
1.2606141e-07
1.2324183e-07
1.1799472e-07
1.1886846e-07
1.1556436e-07
1.2000952e-07
1.2237479e-07
1.2788891e-07
1.3471076e-07
1.4847373e-07
1.6598547e-07
1.8340683e-07
2.1393541e-07
2.2302519e-07
2.5674718e-07
2.6968016e-07
2.9116354e-07
2.977722e-07
3.078845e-07
3.0869356e-07
3.1809675e-07
3.2489546e-07
1.402355e-07
1.3215951e-07
1.2573097e-07
1.2319513e-07
1.1822743e-07
1.1940959e-07
1.1756214e-07
1.26762e-07
1.3760672e-07
1.2443491e-07
1.7745807e-07
1.1687695e-07
2.3865104e-07
1.5873378e-07
3.1150265e-07
2.4684576e-07
3.7410876e-07
3.3000997e-07
4.1855741e-07
3.872238e-07
4.308858e-07
5.058723e-07
1.0812864e-06
3.4501893e-06
1.4293754e-07
1.2516404e-07
1.3881431e-07
1.554038e-07
2.0975616e-07
3.5901869e-07
6.7129497e-07
1.2509562e-06
2.1159264e-06
6.4812186e-07
4.5705789e-06
1.5542114e-06
7.4469521e-06
3.3809819e-06
1.0481736e-05
5.5116559e-06
1.3503209e-05
5.9085418e-06
1.8474426e-05
8.7350809e-06
2.4538323e-05
3.63604e-05
6.7636785e-05
0.00016672758
1.4174487e-07
1.3059019e-07
7.2115777e-07
2.2094444e-06
6.3559449e-06
1.3168399e-05
2.1888213e-05
3.1613358e-05
4.155068e-05
3.9372284e-05
6.3398388e-05
4.2287405e-05
8.4162823e-05
4.7228133e-05
0.00010779043
4.5225264e-05
0.000142285
2.8682124e-05
0.00020601619
6.0667954e-05
0.00031885725
0.0003054705
0.00040231915
0.00055422026
1.4944415e-07
1.9894784e-07
8.3448138e-06
2.6183557e-05
4.7198566e-05
6.4318684e-05
7.6852476e-05
8.635723e-05
9.3787605e-05
9.876262e-05
0.00011693512
8.911039e-05
0.00014555546
8.5070648e-05
0.00018857534
8.9469037e-05
0.00025887395
0.00013148346
0.00037893096
0.00022957175
0.00052462258
0.0004438228
0.00061471804
0.00066020093
2.2842167e-07
3.2750259e-07
2.5111533e-05
5.3580557e-05
7.2368443e-05
7.9383451e-05
8.2206036e-05
8.5283102e-05
8.8622761e-05
9.1103501e-05
0.0001206507
9.0043802e-05
0.00015657746
0.00010543402
0.00021246444
0.00014341673
0.00029796746
0.00023216447
0.00040755431
0.00035264148
0.00052053779
0.00048602577
0.00063488758
0.00064487641
3.7953188e-07
2.0115171e-07
2.3849981e-05
4.8673525e-05
5.1750343e-05
5.1773658e-05
5.3473537e-05
5.7229246e-05
6.10471e-05
6.7731264e-05
9.1507712e-05
8.2634045e-05
0.00012518626
0.00010864704
0.00017581621
0.00016039984
0.00024943791
0.00024697679
0.00033935614
0.00034070056
0.0004272773
0.00042730877
0.00052055444
0.0005026378
1.8112128e-07
4.7340739e-08
1.1874672e-05
1.9824857e-05
2.0251319e-05
2.1717646e-05
2.4577053e-05
2.8758391e-05
3.3383456e-05
4.2284405e-05
5.3858595e-05
5.8080107e-05
7.846195e-05
8.39007e-05
0.00011792353
0.0001283775
0.00017603225
0.00019326633
0.00024150358
0.00025775834
0.00030149338
0.00031485229
0.00035677739
0.0003293233
3.4702863e-08
6.3372752e-09
9.4668926e-07
1.7198829e-06
1.984664e-06
2.5630646e-06
3.6297472e-06
5.519604e-06
8.3769838e-06
1.4611432e-05
2.1400703e-05
2.7888013e-05
3.875802e-05
4.7899577e-05
6.5000423e-05
7.6628552e-05
0.00010269882
0.00011883107
0.00014355438
0.00015808705
0.00017900201
0.00018895898
0.00020331957
0.00019362646
1.6822848e-08
2.1962348e-09
1.7435008e-08
3.4501002e-08
4.5329481e-08
6.5305115e-08
1.0291253e-07
1.7646082e-07
3.1057283e-07
6.6052565e-07
1.2425871e-06
2.1652338e-06
4.4612336e-06
8.3546785e-06
1.6801198e-05
2.6178351e-05
3.9734519e-05
5.1062835e-05
6.3733907e-05
7.2899011e-05
8.1859433e-05
8.6465617e-05
8.8913227e-05
9.0554238e-05
1.884326e-08
2.4752346e-09
2.1771128e-09
5.0470429e-09
8.6259778e-09
1.3141499e-08
1.9993703e-08
3.1168647e-08
4.9439304e-08
8.3093042e-08
1.4073217e-07
2.2894819e-07
4.0838331e-07
7.0379658e-07
1.3401368e-06
2.2381723e-06
3.7780801e-06
5.4420879e-06
7.4651268e-06
9.103509e-06
1.0508685e-05
1.0844852e-05
1.042506e-05
1.1369339e-05
2.5676798e-07
3.0203274e-08
2.1507758e-08
2.3294874e-08
3.3941965e-08
5.7589915e-08
1.4553879e-07
3.0721172e-08
4.7490823e-09
4.3918131e-08
1.8647792e-07
6.1878167e-07
2.1106165e-06
4.3158086e-06
1.5601409e-05
2.3860113e-07
4.1413468e-08
2.6596408e-08
3.3126376e-08
7.7340797e-08
1.179654e-07
4.1133665e-07
1.2162293e-07
2.0403948e-07
2.6812726e-07
4.6835309e-07
1.178613e-06
3.3874343e-06
1.7754144e-05
8.5033935e-05
2.3672587e-07
1.3822734e-07
1.6734933e-07
2.906885e-07
1.0452944e-06
1.3459941e-06
4.4132711e-06
2.0357256e-06
5.2336128e-06
6.0031538e-06
6.2553538e-06
7.8092896e-06
1.0331233e-05
4.2598068e-05
0.00012280848
1.9913796e-07
2.6599033e-07
5.7940511e-07
1.1736472e-06
4.143445e-06
3.9237295e-06
1.2046428e-05
8.7260705e-06
2.4209465e-05
2.8257098e-05
2.5053691e-05
2.6965253e-05
2.6760762e-05
5.2283956e-05
3.7943467e-06
1.4732187e-07
2.4671842e-07
5.3983101e-07
1.1919782e-06
4.3147414e-06
1.4325478e-06
1.6526396e-05
1.0326799e-05
4.412163e-05
5.1261287e-05
4.9991503e-05
5.3561569e-05
5.175736e-05
7.2372303e-05
2.7975282e-05
1.2576547e-07
1.5351252e-07
2.5290448e-07
4.7698766e-07
1.6960151e-06
6.0765446e-07
1.2574255e-05
4.0209257e-06
5.062768e-05
5.9402646e-05
6.8133455e-05
6.8780123e-05
6.8687225e-05
6.5615645e-05
7.8192293e-05
1.2474808e-07
1.1441864e-07
1.0894463e-07
1.4469216e-07
2.8452269e-07
2.3548789e-07
2.8375196e-06
1.1034364e-06
2.68654e-05
5.1390268e-05
5.4071926e-05
5.2493511e-05
4.7609638e-05
3.5604247e-05
3.3905724e-05
1.2508888e-07
1.0917167e-07
1.0016946e-07
9.1137056e-08
9.5779647e-08
9.3745154e-08
3.2226287e-08
2.8091202e-07
7.9975796e-06
2.2797083e-05
2.4303235e-05
2.3323181e-05
2.1949268e-05
1.4181433e-05
1.2887374e-05
1.2513497e-07
1.0914037e-07
9.8868931e-08
9.2074722e-08
8.6683236e-08
8.3525001e-08
7.7507859e-08
1.1489336e-07
1.6803581e-06
4.6398247e-06
5.4349283e-06
5.1704784e-06
4.5824118e-06
3.4298096e-06
3.591517e-06
1.2514369e-07
1.0913894e-07
9.8843555e-08
9.2034184e-08
8.6541953e-08
8.351379e-08
7.680221e-08
8.6047184e-08
2.9862802e-07
7.4278206e-07
8.9413208e-07
7.8845222e-07
7.4847413e-07
6.1323317e-07
6.8035386e-07
1.2515655e-07
1.0907833e-07
9.8993028e-08
9.1670699e-08
8.721592e-08
8.2105744e-08
8.0488325e-08
7.7947715e-08
1.0754042e-07
1.6582497e-07
1.8171488e-07
1.7897437e-07
1.7730432e-07
1.7459504e-07
1.7952093e-07
1.2516123e-07
1.0908961e-07
9.8916922e-08
9.173199e-08
8.7016603e-08
8.2200501e-08
8.0022083e-08
7.6503787e-08
7.8828839e-08
8.6331317e-08
9.1979876e-08
9.4094288e-08
9.5431863e-08
9.7462984e-08
1.0190854e-07
1.2516529e-07
1.091013e-07
9.8822245e-08
9.1850556e-08
8.6717367e-08
8.2601376e-08
7.8805489e-08
7.7017832e-08
7.438514e-08
7.5954151e-08
7.421987e-08
7.7297692e-08
7.8637889e-08
8.0159777e-08
8.3615993e-08
1.2517141e-07
1.0909131e-07
9.8811075e-08
9.1788467e-08
8.6679285e-08
8.2454289e-08
7.8514412e-08
7.60494e-08
7.4101176e-08
7.2811029e-08
7.2369474e-08
7.223537e-08
7.3839496e-08
7.4761776e-08
7.5870124e-08
1.2517627e-07
1.0909394e-07
9.8761884e-08
9.1801227e-08
8.6524938e-08
8.2475227e-08
7.8028937e-08
7.590146e-08
7.2360893e-08
7.2600286e-08
6.9833453e-08
7.1092288e-08
7.0345655e-08
7.1434755e-08
7.1721284e-08
1.2518247e-07
1.0908661e-07
9.8757648e-08
9.1719785e-08
8.6509275e-08
8.2238609e-08
7.8035949e-08
7.5085695e-08
7.2414382e-08
7.0535582e-08
6.9715272e-08
6.8737283e-08
6.8898017e-08
6.8662403e-08
6.8877083e-08
1.251884e-07
1.0908596e-07
9.874259e-08
9.1670545e-08
8.64514e-08
8.2083115e-08
7.7972285e-08
7.454822e-08
7.1946757e-08
6.9811756e-08
6.8675148e-08
6.7685171e-08
6.739675e-08
6.7057948e-08
6.7008531e-08
1.2519459e-07
1.0908759e-07
9.8730219e-08
9.1636476e-08
8.6392675e-08
8.1988728e-08
7.7860966e-08
7.4299146e-08
7.1516921e-08
6.933381e-08
6.7940351e-08
6.6916684e-08
6.6404162e-08
6.6016557e-08
6.5848509e-08
1.2520093e-07
1.0909127e-07
9.8724009e-08
9.1614841e-08
8.635423e-08
8.1930741e-08
7.7787696e-08
7.417338e-08
7.1273764e-08
6.9038339e-08
6.7500774e-08
6.6440494e-08
6.5816861e-08
6.5405044e-08
6.5182676e-08
1.2520713e-07
1.090962e-07
9.8723747e-08
9.1605367e-08
8.6335672e-08
8.1903942e-08
7.7757341e-08
7.4113605e-08
7.1157918e-08
6.8887535e-08
6.7277923e-08
6.6194149e-08
6.5517124e-08
6.509275e-08
6.4844765e-08
1.2521248e-07
1.0910134e-07
9.8726601e-08
9.1603711e-08
8.6329959e-08
8.1898141e-08
7.775696e-08
7.4099587e-08
7.111622e-08
6.8828113e-08
6.7186608e-08
6.6090578e-08
6.5389545e-08
6.4957809e-08
6.4697576e-08
1.2521599e-07
1.0910515e-07
9.8729735e-08
9.1605474e-08
8.6330451e-08
8.1905704e-08
7.7780211e-08
7.4117009e-08
7.1118141e-08
6.8821381e-08
6.7168512e-08
6.6066101e-08
6.5354241e-08
6.491731e-08
6.4650104e-08
1.2521624e-07
1.0910571e-07
9.8733879e-08
9.1619788e-08
8.6369528e-08
8.1998689e-08
7.7993993e-08
7.4408168e-08
7.1163624e-08
6.9097203e-08
6.7078475e-08
6.6253913e-08
6.5268716e-08
6.4996058e-08
6.4597865e-08
1.2526709e-07
1.0971642e-07
1.0092054e-07
9.649361e-08
9.4811994e-08
9.5045446e-08
9.6808625e-08
9.9959355e-08
1.0300736e-07
1.057982e-07
1.0746571e-07
1.0886109e-07
1.0953557e-07
1.101007e-07
1.103384e-07
2.4361623e-07
2.4387376e-07
2.4372772e-07
2.4404169e-07
2.4393885e-07
2.444866e-07
2.4447186e-07
2.4444531e-07
2.431218e-07
2.4256673e-07
2.4133699e-07
2.4087381e-07
2.3920941e-07
2.3865409e-07
2.3659328e-07
2.3624228e-07
2.3388069e-07
2.3369394e-07
2.3109518e-07
2.3112373e-07
2.2834791e-07
2.2863509e-07
2.2575154e-07
2.2630374e-07
2.2334362e-07
2.2411942e-07
2.2106913e-07
2.220407e-07
2.1889517e-07
2.2010551e-07
2.1692965e-07
2.1837941e-07
2.1539094e-07
3.1828309e-06
0.0012890465
0.01138679
0.026924439
0.037912108
0.046023665
0.052700826
0.058259923
0.063272258
0.067364758
0.071102958
0.074299643
0.077184311
0.079927739
0.082744085
0.085817664
0.089422802
0.093787681
0.098921336
0.10533116
0.1125876
0.12079094
0.13031105
0.14104897
0.15292312
0.16565367
0.17897932
0.19221031
0.20512807
0.21658155
0.22759305
2.446289e-07
2.4453827e-07
2.4481815e-07
2.4468676e-07
2.4511147e-07
2.4511851e-07
2.4559307e-07
2.4500871e-07
2.4449752e-07
2.4307369e-07
2.4277409e-07
2.4116484e-07
2.4076337e-07
2.3878639e-07
2.38415e-07
2.3621756e-07
2.3598497e-07
2.3347786e-07
2.3339834e-07
2.3064154e-07
2.3078501e-07
2.2785272e-07
2.282878e-07
2.2527044e-07
2.2603337e-07
2.2298364e-07
2.2407467e-07
2.2101093e-07
2.2241586e-07
2.1927451e-07
2.2133918e-07
2.1575926e-07
3.9939781e-07
0.00016050257
0.0046921645
0.016003235
0.029157643
0.039046788
0.046775472
0.053246164
0.058681252
0.063603691
0.067642136
0.071359554
0.07453054
0.077407395
0.080142423
0.082949057
0.086008564
0.089592778
0.093931182
0.099049506
0.1054464
0.11268249
0.12087289
0.13037818
0.14110233
0.15296399
0.16568356
0.17900002
0.19222371
0.20513617
0.21658642
0.22759607
2.4123681e-07
2.4119911e-07
2.4136137e-07
2.4140364e-07
2.417989e-07
2.4209366e-07
2.4245499e-07
2.4214259e-07
2.4161351e-07
2.4031663e-07
2.4010815e-07
2.3863885e-07
2.3832842e-07
2.364299e-07
2.3611138e-07
2.3397308e-07
2.3367456e-07
2.3139572e-07
2.3105438e-07
2.2878187e-07
2.2833093e-07
2.2626162e-07
2.2563175e-07
2.2392775e-07
2.2316536e-07
2.2182202e-07
2.2109272e-07
2.1994504e-07
2.1948705e-07
2.1384928e-07
2.1413831e-07
1.9772088e-07
5.8315011e-05
0.0024078214
0.011365108
0.023726148
0.033382255
0.041661634
0.048606163
0.054606113
0.059745607
0.06444348
0.068348345
0.072007613
0.075106669
0.077957282
0.080667677
0.083448184
0.086473561
0.090009802
0.094287423
0.09937025
0.10573277
0.11291806
0.12107751
0.13054728
0.1412387
0.15307102
0.16576511
0.17906038
0.19226693
0.20516672
0.21660753
0.22761103
2.4289091e-07
2.4289021e-07
2.4291854e-07
2.4301955e-07
2.4320343e-07
2.4357079e-07
2.4387791e-07
2.436334e-07
2.4261731e-07
2.4178367e-07
2.4080782e-07
2.3998677e-07
2.3872829e-07
2.3769089e-07
2.3632142e-07
2.3515071e-07
2.3379782e-07
2.324775e-07
2.3114015e-07
2.2978899e-07
2.2846535e-07
2.2720219e-07
2.2591097e-07
2.2483639e-07
2.2359953e-07
2.2275767e-07
2.2161329e-07
2.2108385e-07
2.1864481e-07
1.4371063e-06
1.9531844e-06
6.2523317e-05
0.0018290988
0.0097904305
0.02177231
0.031190679
0.038761742
0.045552476
0.051534545
0.056866049
0.061552739
0.065875638
0.069577501
0.073118557
0.076088017
0.078887231
0.081551737
0.084286123
0.087255444
0.090715997
0.094897267
0.099924149
0.10622111
0.11332136
0.12142808
0.13083757
0.14147345
0.15325621
0.16590743
0.17916719
0.19234493
0.20522336
0.2166474
0.22763962
2.4423439e-07
2.4429799e-07
2.4408698e-07
2.4424747e-07
2.4417922e-07
2.4469483e-07
2.4481001e-07
2.4474108e-07
2.4348025e-07
2.4281841e-07
2.415629e-07
2.4095621e-07
2.3934535e-07
2.3862429e-07
2.3675349e-07
2.3611689e-07
2.3398978e-07
2.3353853e-07
2.311748e-07
2.3088902e-07
2.285241e-07
2.2826692e-07
2.2603311e-07
2.2597433e-07
2.235065e-07
2.2528079e-07
2.1506223e-07
2.2607616e-07
1.5322637e-07
8.0031305e-06
0.00016559781
0.0024247722
0.010176213
0.022351638
0.031335994
0.038659765
0.04479508
0.050398867
0.05544405
0.060021951
0.064130851
0.067965237
0.071421126
0.074740898
0.077529517
0.080249035
0.082843697
0.085510306
0.088401048
0.091758065
0.095806871
0.10075956
0.10694408
0.11392625
0.12195304
0.1312727
0.14182559
0.15353435
0.16612165
0.17932858
0.19246349
0.20531012
0.21670871
0.22768362
2.4671323e-07
2.4673722e-07
2.4648217e-07
2.4660923e-07
2.4650195e-07
2.471044e-07
2.4724338e-07
2.4722544e-07
2.4591482e-07
2.4509323e-07
2.4391095e-07
2.4287414e-07
2.4158157e-07
2.4021309e-07
2.3882886e-07
2.3749209e-07
2.3588878e-07
2.3469927e-07
2.3310898e-07
2.3174566e-07
2.3039287e-07
2.2964066e-07
2.2740435e-07
2.2771982e-07
2.2936583e-07
2.2619405e-07
3.8182061e-07
6.4479383e-06
2.085612e-05
0.00055885727
0.004570099
0.013208649
0.025024253
0.033525767
0.040283406
0.046137583
0.051192355
0.055878859
0.06011151
0.063955303
0.067396535
0.070772578
0.073891025
0.07691009
0.079467031
0.082078364
0.084579317
0.08715734
0.08994854
0.093176197
0.097062991
0.10191782
0.10793244
0.11477048
0.12268252
0.13187819
0.14231599
0.15392184
0.1664202
0.17955367
0.19262906
0.20543155
0.21679449
0.22774503
2.5006831e-07
2.501547e-07
2.4984496e-07
2.4988855e-07
2.4984846e-07
2.5050574e-07
2.5065515e-07
2.5075561e-07
2.4948364e-07
2.4848792e-07
2.4700562e-07
2.4620444e-07
2.4406333e-07
2.4365273e-07
2.4066241e-07
2.4097328e-07
2.3747322e-07
2.3777276e-07
2.3446289e-07
2.37404e-07
2.2307711e-07
2.3408147e-07
1.5613637e-07
2.248908e-07
3.4533376e-06
1.2839315e-05
7.1096013e-05
0.00040818269
0.002570795
0.0087885967
0.019442255
0.029395961
0.03706745
0.043450268
0.048780922
0.053540207
0.05775181
0.061721995
0.065241575
0.068399829
0.071328333
0.074213979
0.076946343
0.079620092
0.0819094
0.084387626
0.086774315
0.089246658
0.091921163
0.094998226
0.098710955
0.10341979
0.10921871
0.11589121
0.12364636
0.13268008
0.14296647
0.15443619
0.16681653
0.17985241
0.19284875
0.20559266
0.21690807
0.22782606
2.5511759e-07
2.5504549e-07
2.5483506e-07
2.5477317e-07
2.5480874e-07
2.556299e-07
2.5591918e-07
2.561106e-07
2.5458244e-07
2.5337102e-07
2.5124172e-07
2.5027915e-07
2.4751044e-07
2.4676564e-07
2.4406162e-07
2.4340394e-07
2.4074051e-07
2.3895423e-07
2.3077838e-07
2.1765353e-07
1.1980045e-06
5.6651944e-06
1.5651947e-05
7.4306541e-05
0.00019413112
0.00068424122
0.0033177395
0.0083239869
0.017079242
0.026986399
0.034930676
0.041699306
0.04745141
0.052477766
0.056796112
0.06073328
0.064300166
0.067632225
0.070571652
0.073258562
0.075717271
0.078155415
0.080512561
0.082824111
0.084836809
0.087163029
0.089421179
0.09177704
0.094323182
0.09723597
0.10078406
0.10526617
0.11084168
0.11731534
0.12487201
0.13370353
0.14379884
0.1550954
0.16732476
0.18023543
0.1931302
0.20579887
0.2170531
0.22792917
2.6162564e-07
2.6111375e-07
2.6118262e-07
2.6069242e-07
2.6144669e-07
2.6247201e-07
2.624784e-07
2.6318392e-07
2.6169776e-07
2.6114875e-07
2.5859e-07
2.5562681e-07
2.5542523e-07
2.5158246e-07
2.5403788e-07
1.8586914e-07
2.9763932e-07
3.3866552e-08
1.3777809e-06
6.4425603e-05
5.0129318e-05
0.00026339355
0.001121599
0.0029520359
0.0068487782
0.011939957
0.019182134
0.026932529
0.034242981
0.040791979
0.04664866
0.051918818
0.056528609
0.060640503
0.064245684
0.067584581
0.070595852
0.073440805
0.076004948
0.078289473
0.08038229
0.082452409
0.084482494
0.08644454
0.088205545
0.090365955
0.092489944
0.094726448
0.097138608
0.099911818
0.10323566
0.10748968
0.11282034
0.11906301
0.12638227
0.1349711
0.14483384
0.15591723
0.16795925
0.18071376
0.19348153
0.20605601
0.21723356
0.22805705
2.703646e-07
2.6990274e-07
2.6907166e-07
2.6945947e-07
2.6924226e-07
2.7013378e-07
2.8401521e-07
2.7888339e-07
2.7276869e-07
2.695009e-07
2.6633159e-07
2.721829e-07
2.1513704e-07
6.8964468e-08
7.6393127e-07
9.7395841e-06
1.8517241e-05
0.00022859869
0.00083743864
0.0022153708
0.0052994596
0.0088945379
0.014203924
0.018729408
0.024367077
0.02956724
0.03529621
0.040722583
0.046193956
0.051431331
0.056192908
0.060554936
0.064447456
0.067948129
0.071046964
0.073948096
0.076596552
0.079093583
0.081349961
0.083338137
0.085172486
0.086969701
0.088741004
0.090413471
0.091939998
0.093937307
0.095932666
0.098057511
0.1003475
0.10295489
0.10607428
0.11008916
0.11515933
0.12114486
0.12819299
0.13650097
0.14608976
0.15691841
0.16873409
0.1812986
0.19391116
0.20637027
0.21745371
0.22821266
2.8121184e-07
2.7992271e-07
2.8009315e-07
2.781444e-07
2.6988166e-07
3.8808653e-07
1.7895748e-06
1.3625799e-06
6.6260906e-07
2.4319478e-07
3.3274505e-06
6.3904902e-06
8.0572502e-06
3.9108971e-05
0.00028427034
0.0014062839
0.0039312857
0.0081286452
0.012927541
0.016995663
0.021619107
0.025416172
0.029721884
0.033700346
0.037753258
0.041678803
0.046235137
0.050804384
0.055501942
0.060014113
0.064153078
0.067952529
0.071349375
0.074448965
0.077223922
0.079833195
0.082234538
0.084493121
0.086524834
0.088307929
0.090007179
0.091647861
0.093147466
0.094666145
0.095926722
0.097818228
0.099709324
0.10170969
0.10387974
0.10634277
0.1092689
0.1130457
0.11784946
0.12356033
0.13031122
0.13830517
0.14758102
0.15811353
0.16966247
0.1820009
0.1944276
0.20674808
0.21771814
0.22839921
2.9311266e-07
2.9190963e-07
2.9058222e-07
2.9095597e-07
7.5529947e-07
1.051111e-05
0.00010358133
0.00011462356
7.3495607e-05
8.0059933e-05
8.2737387e-05
0.00015471463
0.00076123287
0.0033933484
0.0085819988
0.015044214
0.019694342
0.023783117
0.027050621
0.030419804
0.033616613
0.036478308
0.039809979
0.043094296
0.046699518
0.050413618
0.054546827
0.058762663
0.063011688
0.067082144
0.070832133
0.074281683
0.077381181
0.080238392
0.082825664
0.085262348
0.087511921
0.089618591
0.091493602
0.093209639
0.09482483
0.096322812
0.097663037
0.099075126
0.10014876
0.10193748
0.10373583
0.10562928
0.10769064
0.11002413
0.11277553
0.11632617
0.1208673
0.12629709
0.13273393
0.14038811
0.14931692
0.15951412
0.17075599
0.18283099
0.19503929
0.20719605
0.21803167
0.2286202
3.0391234e-07
3.0217154e-07
3.0303715e-07
2.9791644e-07
1.1488653e-05
0.00029979833
0.0021038866
0.0029768193
0.0031030901
0.0029409304
0.003567359
0.0050588906
0.0099440759
0.017646329
0.023023973
0.027149758
0.03023184
0.032908031
0.035329433
0.037866488
0.040681384
0.043493384
0.04666908
0.049929793
0.053491655
0.05719068
0.061173669
0.065208706
0.069203022
0.073006249
0.076521906
0.079767591
0.082707565
0.085437948
0.087937086
0.090291001
0.092462644
0.094481031
0.096312654
0.098017006
0.099532538
0.10098136
0.10223141
0.1035745
0.10453643
0.10623271
0.10794944
0.10975254
0.11171931
0.11394052
0.11654007
0.11988585
0.12417955
0.12933084
0.13544758
0.14274565
0.15130046
0.1611276
0.1720239
0.1837981
0.19575431
0.20772083
0.21839937
0.22887942
3.1603695e-07
3.1795287e-07
2.9031948e-07
5.5153868e-06
0.00061906041
0.0034646145
0.0070548861
0.0070168362
0.0075211109
0.009460976
0.010279229
0.013898306
0.020731465
0.026536353
0.03030157
0.033113883
0.035489361
0.037845273
0.040226465
0.042806914
0.045636843
0.048599649
0.051870689
0.055261762
0.058909891
0.062679223
0.066624379
0.070569618
0.074420439
0.07807302
0.081462271
0.08460792
0.087485057
0.090169834
0.092652527
0.094985152
0.097132478
0.099156488
0.10098436
0.10265583
0.10414006
0.10558119
0.10679643
0.10810328
0.10901493
0.11063971
0.11228711
0.11401494
0.1159018
0.11803128
0.12050667
0.12367526
0.12774215
0.13262741
0.13842873
0.14536486
0.15352771
0.16295653
0.17347249
0.18490991
0.19658015
0.20832899
0.2188265
0.22918097
3.2122104e-06
2.6980488e-06
2.0090359e-05
0.00073404387
0.0045924888
0.0071294938
0.0096957491
0.0096692006
0.010450516
0.012743849
0.015169238
0.020848226
0.026579242
0.030926394
0.033969169
0.036438045
0.038703576
0.041085991
0.043636979
0.046425983
0.049428819
0.052614683
0.056062019
0.05963219
0.063409096
0.067274053
0.071231277
0.075141299
0.078920791
0.082504772
0.085844349
0.088963974
0.091845349
0.094539504
0.09705688
0.099418646
0.10159629
0.10362306
0.10546495
0.10716763
0.10866581
0.11012439
0.11134128
0.11263407
0.11353342
0.11510464
0.11669541
0.11836275
0.12018551
0.12224071
0.12461721
0.12763824
0.13150528
0.13614496
0.14164537
0.14822449
0.1559876
0.1649981
0.17510452
0.18617211
0.1975234
0.20902693
0.21931849
0.22952927
0.00016900169
0.00020597381
0.00099524436
0.0042565398
0.007053727
0.0093113748
0.010809965
0.011167733
0.012785384
0.015721027
0.019654538
0.025126898
0.029933425
0.033477847
0.036153747
0.038556959
0.040933603
0.043476497
0.046268252
0.049302888
0.052528707
0.055952274
0.059595408
0.063351511
0.06726498
0.071229325
0.075222944
0.079135044
0.082893443
0.086468028
0.08981273
0.092958298
0.095889078
0.098633428
0.10119919
0.10361571
0.10585772
0.1079402
0.10982039
0.11156725
0.11310331
0.11459523
0.11584113
0.11713854
0.11805503
0.11958072
0.12112424
0.12274249
0.12451389
0.12651191
0.12881465
0.13171922
0.13541641
0.13983676
0.14505901
0.15129613
0.15866234
0.16724403
0.17691889
0.1875881
0.19858957
0.20982071
0.21988092
0.22992908
0.00062457261
0.00094878318
0.0030097062
0.0061737614
0.0086873991
0.010168198
0.011680144
0.012790418
0.01495391
0.01849813
0.023034476
0.027996198
0.032056188
0.035098639
0.037619255
0.040087722
0.042637863
0.045412582
0.048460134
0.051733526
0.055190878
0.058843245
0.062677318
0.066609238
0.070653699
0.074714898
0.07875831
0.082701073
0.086474151
0.090082102
0.093469688
0.096664865
0.099659053
0.10249388
0.10514978
0.10764885
0.10996038
0.11210571
0.11404062
0.11584358
0.11743435
0.1189704
0.12026216
0.12157672
0.12252934
0.12402078
0.12552632
0.12710608
0.12883838
0.13079477
0.13304674
0.13586477
0.13942299
0.14365388
0.14862706
0.15454593
0.1615283
0.16968081
0.17891058
0.18915875
0.19978287
0.21071598
0.22051948
0.23038554
0.00091511847
0.0018300565
0.0045615431
0.0073071626
0.009339295
0.010977265
0.012658454
0.014316297
0.017026101
0.020994688
0.025585168
0.029969744
0.033464507
0.036214976
0.038724384
0.041323773
0.044081583
0.047087258
0.050373198
0.053886038
0.057559357
0.061422083
0.065432844
0.069524503
0.073690223
0.077846008
0.0819424
0.085934892
0.089753432
0.093406121
0.096871076
0.10015723
0.10325016
0.10618273
0.10893231
0.11151768
0.1139072
0.11612397
0.11812461
0.11999057
0.12164562
0.12323202
0.12457914
0.12591906
0.12691902
0.12838523
0.12986117
0.13141188
0.13311612
0.13504482
0.13726645
0.14002541
0.14347476
0.14754774
0.1523052
0.15793656
0.16455736
0.17229043
0.1810708
0.1908824
0.20110615
0.21171791
0.22123996
0.23090419
0.0013183971
0.003008917
0.0056863767
0.0080734112
0.010015422
0.011737228
0.013598382
0.015744142
0.018880689
0.023062433
0.027488931
0.031351134
0.034450496
0.037076395
0.03965507
0.042414349
0.045383527
0.048609592
0.05211766
0.055843499
0.05971723
0.063768297
0.067938764
0.072168708
0.07644061
0.080687297
0.084855159
0.088909337
0.092801248
0.096534622
0.10009113
0.10347532
0.10667097
0.10970627
0.1125547
0.11523059
0.11770208
0.11999397
0.12206615
0.1239984
0.12572219
0.12736187
0.12876859
0.13013895
0.13119186
0.13264007
0.13409385
0.13562397
0.13731009
0.13922354
0.14143262
0.14415676
0.14752533
0.15147214
0.15604958
0.16142922
0.16771852
0.17505133
0.18338753
0.19275497
0.20256089
0.21283114
0.22204826
0.23149102
0.0021513828
0.0040090203
0.0065276055
0.0087361379
0.010654532
0.012426216
0.014460672
0.017018628
0.020479976
0.024708297
0.028891988
0.032339276
0.0352108
0.037817645
0.040509086
0.043436273
0.046606495
0.050035698
0.053743659
0.057658032
0.061712775
0.065925596
0.070236184
0.074596583
0.078973902
0.083309169
0.087557668
0.09168488
0.09566063
0.099484753
0.10314275
0.10663207
0.10993515
0.11307436
0.11602201
0.11878855
0.12134268
0.12371017
0.12585598
0.12785527
0.12964873
0.13134231
0.13280929
0.13421289
0.13532052
0.13675671
0.13819495
0.13971207
0.14138904
0.14329835
0.14551005
0.14822014
0.15153339
0.15538479
0.15981871
0.16498562
0.1709795
0.17793962
0.18584615
0.19477026
0.20414725
0.21405984
0.2229504
0.23215251
0.0028118239
0.0047735337
0.0071732315
0.0093371525
0.011257672
0.01305258
0.015232799
0.018116262
0.021809962
0.026000935
0.029922599
0.03308841
0.035856392
0.038512523
0.041336961
0.044428171
0.047782428
0.051393602
0.055274196
0.059350316
0.063568563
0.067928938
0.072369486
0.076844184
0.081317614
0.085739656
0.090072786
0.094284067
0.098353288
0.10227689
0.10604094
0.10963764
0.11304835
0.11628945
0.11933357
0.12218814
0.12482318
0.12726468
0.12948363
0.13154892
0.13341065
0.13515721
0.13668274
0.13812082
0.13928246
0.14071173
0.14214037
0.14365141
0.14532732
0.14724237