/*--------------------------------*- C++ -*----------------------------------*\
| =========                 |                                                 |
| \\      /  F ield         | OpenFOAM: The Open Source CFD Toolbox           |
|  \\    /   O peration     | Version:  v1912                                 |
|   \\  /    A nd           | Website:  www.openfoam.com                      |
|    \\/     M anipulation  |                                                 |
\*---------------------------------------------------------------------------*/
FoamFile
{
    version     2.0;
    format      ascii;
    class       volVectorField;
    location    "60000";
    object      U;
}
// * * * * * * * * * * * * * * * * * * * * * * * * * * * * * * * * * * * * * //

dimensions      [0 1 -1 0 0 0 0];


internalField   nonuniform List<vector> 
4520
(
(19.969518 -7.2878287e-10 -0.017015562)
(20.816457 -1.6743172e-09 -0.026374355)
(21.97732 -3.4353881e-09 -0.037004188)
(23.412182 -4.2336477e-09 -0.052113897)
(25.359661 -5.2301212e-09 -0.07327744)
(28.034777 -4.6295456e-09 -0.099079945)
(31.584981 -5.3107905e-09 -0.12736882)
(36.162924 -6.0039705e-09 -0.15583228)
(41.951043 -7.4686697e-09 -0.18190477)
(49.132718 -8.5230531e-09 -0.20235643)
(57.85276 -1.0366218e-08 -0.21453137)
(68.174679 -1.1993425e-08 -0.21733492)
(80.026594 -1.3799693e-08 -0.2121477)
(93.14238 -1.3945328e-08 -0.20302564)
(107.02806 -1.3823402e-08 -0.19501804)
(120.97945 -1.5120539e-08 -0.19112966)
(134.17974 -1.5371248e-08 -0.19032554)
(145.85631 -1.5867001e-08 -0.18775367)
(155.45411 -1.6362791e-08 -0.17849085)
(162.75687 -1.6749967e-08 -0.15919111)
(167.89812 -1.7084227e-08 -0.13264289)
(171.27016 -1.7226494e-08 -0.10307525)
(173.36176 -1.7484811e-08 -0.076395342)
(174.64784 -1.7454934e-08 -0.056778232)
(19.9673 -1.0291263e-08 -0.048500284)
(20.813811 -1.0063909e-08 -0.062684612)
(21.973483 -9.7588858e-09 -0.083856859)
(23.408267 -9.6573541e-09 -0.11544665)
(25.35551 -9.301831e-09 -0.15763594)
(28.029677 -9.6840943e-09 -0.20838435)
(31.578022 -1.0020918e-08 -0.26699667)
(36.152703 -1.0157959e-08 -0.33407192)
(41.93547 -1.0645369e-08 -0.41034564)
(49.109186 -1.1514736e-08 -0.49593321)
(57.818574 -1.199221e-08 -0.59038343)
(68.127829 -1.3149875e-08 -0.69161946)
(79.966686 -1.4387403e-08 -0.79450997)
(93.071552 -1.5045172e-08 -0.88945688)
(106.95131 -1.5908482e-08 -0.96249503)
(120.90389 -1.6501533e-08 -0.99700658)
(134.11278 -1.6871051e-08 -0.98028357)
(145.80341 -1.7053265e-08 -0.90842004)
(155.41727 -1.7079247e-08 -0.79062392)
(162.73431 -1.6779326e-08 -0.64519799)
(167.88567 -1.6346976e-08 -0.49575854)
(171.26299 -1.586541e-08 -0.36186738)
(173.3558 -1.534301e-08 -0.25638925)
(174.64113 -1.4757183e-08 -0.18407978)
(19.964818 -4.372988e-09 -0.099435541)
(20.808492 -4.3359531e-09 -0.11901604)
(21.966425 -4.309592e-09 -0.15815298)
(23.400014 -4.2994559e-09 -0.21843559)
(25.345788 -4.338465e-09 -0.29778791)
(28.017666 -4.4286389e-09 -0.39376496)
(31.562316 -4.5655989e-09 -0.50626204)
(36.131218 -4.9284557e-09 -0.63635244)
(41.905536 -5.2098635e-09 -0.7839504)
(49.06787 -5.6888847e-09 -0.94719741)
(57.763317 -5.9692393e-09 -1.1219687)
(68.057387 -6.22794e-09 -1.300505)
(79.882217 -6.535988e-09 -1.4703028)
(92.977457 -6.884332e-09 -1.6132474)
(106.85531 -7.1004075e-09 -1.7085372)
(120.81576 -7.3597323e-09 -1.7347031)
(134.04176 -7.4699104e-09 -1.6782982)
(145.75542 -7.4436993e-09 -1.5382091)
(155.39307 -7.2758869e-09 -1.3296304)
(162.72948 -7.0207743e-09 -1.0815847)
(167.89272 -6.7555235e-09 -0.82900281)
(171.27398 -6.4267925e-09 -0.60452043)
(173.36443 -6.1212935e-09 -0.4274353)
(174.64416 -5.775674e-09 -0.307981)
(19.961079 -2.9634766e-09 -0.17887634)
(20.799165 -2.8437692e-09 -0.2088992)
(21.952159 -2.7511897e-09 -0.2773194)
(23.38172 -2.6030948e-09 -0.38191271)
(25.323521 -2.527994e-09 -0.51723616)
(27.990455 -2.55711e-09 -0.6798567)
(31.528145 -2.4980733e-09 -0.86987894)
(36.087189 -2.522452e-09 -1.0886667)
(41.848118 -2.6445444e-09 -1.3357476)
(48.993369 -2.7686618e-09 -1.6080089)
(57.66883 -2.8822506e-09 -1.8986661)
(67.942154 -2.9906673e-09 -2.1951897)
(79.74915 -3.0607037e-09 -2.4773798)
(92.834245 -3.2051953e-09 -2.7165601)
(106.71444 -3.2800619e-09 -2.8792709)
(120.6926 -3.2594125e-09 -2.9308473)
(133.95083 -3.2337381e-09 -2.8471588)
(145.70618 -3.1320241e-09 -2.623139)
(155.38651 -2.9883751e-09 -2.2802174)
(162.75786 -2.799813e-09 -1.8649278)
(167.94224 -2.5786282e-09 -1.4363951)
(171.32913 -2.3729565e-09 -1.0514103)
(173.41249 -2.168667e-09 -0.74573845)
(174.67686 -1.9347796e-09 -0.53639339)
(19.954114 -1.1155593e-09 -0.29720145)
(20.780081 -1.0561064e-09 -0.34381057)
(21.920272 -1.0599448e-09 -0.4553424)
(23.339057 -8.7191727e-10 -0.62436939)
(25.270938 -8.8238451e-10 -0.84026142)
(27.92683 -7.5277437e-10 -1.0978233)
(31.4506 -7.5752102e-10 -1.397331)
(35.991778 -6.667092e-10 -1.740407)
(41.730504 -6.6041079e-10 -2.1258709)
(48.849668 -6.6828942e-10 -2.5483789)
(57.497065 -6.7537567e-10 -2.9966734)
(67.744266 -6.8189789e-10 -3.4502927)
(79.532976 -6.6969261e-10 -3.8768215)
(92.614701 -6.5958195e-10 -4.2314791)
(106.5129 -6.1136054e-10 -4.4628429)
(120.53353 -6.1651691e-10 -4.5195491)
(133.85594 -5.49771e-10 -4.3668631)
(145.68774 -4.8310839e-10 -3.9998534)
(155.44236 -4.1401348e-10 -3.4540113)
(162.87098 -3.313724e-10 -2.8023093)
(168.08568 -2.4639462e-10 -2.1367406)
(171.47356 -1.5964948e-10 -1.5440222)
(173.53457 -8.0858152e-11 -1.0778583)
(174.76172 -9.8815498e-12 -0.7616445)
(19.939681 -1.3201861e-10 -0.46340296)
(20.739233 -1.4461563e-10 -0.53412647)
(21.84944 -1.2128518e-10 -0.70639018)
(23.242875 -7.8486193e-11 -0.96589863)
(25.152408 -5.7241271e-11 -1.2934744)
(27.785134 -6.8911932e-11 -1.6807587)
(31.282023 1.9938188e-11 -2.1281825)
(35.791515 1.330472e-11 -2.6375303)
(41.49407 7.9186949e-11 -3.2063167)
(48.574228 9.1894979e-11 -3.826096)
(57.183609 4.5042676e-11 -4.4797248)
(67.400412 8.3515057e-11 -5.1363399)
(79.175382 1.1470515e-10 -5.7477474)
(92.27003 1.1680678e-10 -6.2483324)
(106.21593 1.5668579e-10 -6.5638243)
(120.32157 1.8511514e-10 -6.6218036)
(133.75996 2.1344626e-10 -6.3743985)
(145.72263 2.4650884e-10 -5.8170901)
(155.59967 2.7330511e-10 -5.0032226)
(163.11884 2.9368037e-10 -4.0397038)
(168.37685 3.2626013e-10 -3.0604304)
(171.75791 3.4864226e-10 -2.1913402)
(173.77286 3.6579117e-10 -1.5109053)
(174.93027 3.7910297e-10 -1.0497588)
(19.910381 1.2451808e-10 -0.67406393)
(20.656239 1.3167777e-10 -0.77718854)
(21.703914 1.3150569e-10 -1.0303276)
(23.045222 1.0783428e-10 -1.4098007)
(24.91072 1.5051855e-10 -1.8831944)
(27.499978 1.155669e-10 -2.4370902)
(30.949117 1.0524861e-10 -3.0726231)
(35.405767 1.5608395e-10 -3.7920631)
(41.052065 1.6996186e-10 -4.5912765)
(48.076168 2.3782474e-10 -5.4582203)
(56.636525 2.0076778e-10 -6.3686276)
(66.822039 2.476552e-10 -7.2786645)
(78.596962 2.6651477e-10 -8.1200334)
(91.73658 2.8233334e-10 -8.8001392)
(105.78212 3.1004591e-10 -9.2148057)
(120.04266 2.9627702e-10 -9.2645213)
(133.67876 3.0431632e-10 -8.8845655)
(145.85533 3.1495997e-10 -8.0711478)
(155.92596 3.2436032e-10 -6.9012584)
(163.58271 3.3391208e-10 -5.5261828)
(168.89939 3.3248099e-10 -4.1348332)
(172.25731 3.2732889e-10 -2.905159)
(174.18635 3.1457594e-10 -1.9492029)
(175.22297 3.0680899e-10 -1.305828)
(19.856233 7.1315171e-11 -0.89925564)
(20.505048 6.3188449e-11 -1.0423612)
(21.439169 4.3879273e-11 -1.3958584)
(22.688139 1.1688145e-10 -1.9236128)
(24.479148 3.9216687e-11 -2.5738169)
(26.99745 2.8609438e-11 -3.3258597)
(30.370989 4.4565048e-11 -4.1831565)
(34.747382 9.9847591e-11 -5.1495747)
(40.312501 1.0183521e-10 -6.2196335)
(47.260698 8.7965486e-11 -7.3781447)
(55.761266 1.0976493e-10 -8.5932707)
(65.919162 1.1296249e-10 -9.8062309)
(77.717775 1.2629989e-10 -10.925044)
(90.950661 1.3750266e-10 -11.824157)
(105.16978 1.4803604e-10 -12.361566)
(119.68117 1.5826094e-10 -12.403552)
(133.62416 1.5844423e-10 -11.863415)
(146.12296 1.6889647e-10 -10.73671)
(156.47759 1.727689e-10 -9.128098)
(164.32895 1.6662097e-10 -7.2426024)
(169.71873 1.6674656e-10 -5.3374779)
(173.02593 1.5534589e-10 -3.6583808)
(174.81121 1.4255757e-10 -2.3642116)
(175.65971 1.274563e-10 -1.5044762)
(19.769438 2.020764e-11 -1.0770752)
(20.267189 -1.3331987e-11 -1.2649696)
(21.02528 -2.8729065e-11 -1.7339792)
(22.135906 2.1907192e-11 -2.43172)
(23.821257 1.7104551e-11 -3.2784971)
(26.24124 2.3252675e-11 -4.2451408)
(29.51052 2.0335089e-11 -5.3406596)
(33.778244 1.7212703e-11 -6.5725586)
(39.236376 1.6784764e-11 -7.9356022)
(46.088102 1.8081096e-11 -9.4133645)
(54.517875 2.0237973e-11 -10.967954)
(64.652595 2.1254321e-11 -12.52464)
(76.501179 2.4620363e-11 -13.966153)
(89.88114 1.8197377e-11 -15.129293)
(104.35627 1.5822081e-11 -15.826951)
(119.22509 1.8601375e-11 -15.881584)
(133.59618 1.5698932e-11 -15.17598)
(146.53768 9.2419845e-12 -13.699928)
(157.27703 2.8810435e-12 -11.586745)
(165.38664 -2.8809602e-12 -9.1017235)
(170.86393 -2.0674134e-11 -6.5827841)
(174.08435 -3.3215737e-11 -4.3634721)
(175.65324 -5.2061611e-11 -2.6709745)
(176.23802 -7.1181649e-11 -1.5741847)
(19.652428 -5.1967656e-11 -1.140622)
(19.950615 -4.4777549e-11 -1.3736618)
(20.477648 -7.8427587e-11 -1.9671761)
(21.415069 -8.0381772e-11 -2.8461844)
(22.977347 -6.9514756e-11 -3.8915895)
(25.283458 -7.0248727e-11 -5.0674687)
(28.428975 -7.9229989e-11 -6.3933533)
(32.567155 -1.0991622e-10 -7.8824645)
(37.897752 -1.2359257e-10 -9.5332384)
(44.634214 -9.8886181e-11 -11.331033)
(52.980242 -1.1740788e-10 -13.234913)
(63.090254 -1.3491231e-10 -15.155582)
(75.003739 -1.458189e-10 -16.952206)
(88.567868 -1.4632121e-10 -18.421049)
(103.36121 -1.6099875e-10 -19.325589)
(118.67336 -1.7380474e-10 -19.435513)
(133.57459 -1.8434164e-10 -18.593367)
(147.06376 -1.9278629e-10 -16.772042)
(158.27888 -2.0367863e-10 -14.129409)
(166.70788 -2.1642274e-10 -10.992139)
(172.28887 -2.3398334e-10 -7.7856428)
(175.38579 -2.5019168e-10 -4.9521005)
(176.65943 -2.6491386e-10 -2.8209345)
(176.91488 -2.8227037e-10 -1.501906)
(19.521681 -1.275021e-10 -1.0670574)
(19.594924 -1.1128676e-10 -1.3390608)
(19.86271 -1.4599137e-10 -2.0606831)
(20.618847 -1.6207562e-10 -3.1200901)
(22.064764 -1.3860242e-10 -4.3466603)
(24.260544 -1.6013518e-10 -5.705689)
(27.279816 -1.6845663e-10 -7.2312217)
(31.282703 -1.7534191e-10 -8.9434057)
(36.47685 -1.8387226e-10 -10.84814)
(43.086745 -1.992035e-10 -12.936413)
(51.337345 -2.1840631e-10 -15.167336)
(61.412697 -2.3979339e-10 -17.440717)
(73.385516 -2.6232499e-10 -19.597838)
(87.137583 -2.8531047e-10 -21.394025)
(102.26549 -3.0811324e-10 -22.542924)
(118.05213 -3.3505953e-10 -22.75851)
(133.52966 -3.5155283e-10 -21.835872)
(147.62301 -3.7002898e-10 -19.717083)
(159.37109 -3.8483817e-10 -16.574638)
(168.16652 -3.9182644e-10 -12.788059)
(173.87205 -3.9824675e-10 -8.8664205)
(176.82071 -3.9299295e-10 -5.3741142)
(177.72635 -3.8752835e-10 -2.7928179)
(177.62051 -3.8399675e-10 -1.3191468)
(19.400007 -7.1209254e-11 -0.89467257)
(19.252641 -5.828107e-11 -1.1912139)
(19.265544 -4.6786967e-11 -2.0412763)
(19.861434 -1.816463e-11 -3.2667916)
(21.217691 -1.6952305e-11 -4.6418047)
(23.321724 -1.4455018e-11 -6.1463746)
(26.228796 -1.3651334e-11 -7.8279859)
(30.107605 -1.7187305e-11 -9.714167)
(35.172333 -1.2257757e-11 -11.821071)
(41.657659 -7.4510115e-13 -14.148122)
(49.808686 -1.4531738e-11 -16.657698)
(59.837368 -2.2666301e-11 -19.241301)
(71.848469 -4.1645717e-11 -21.73098)
(85.761391 -4.0532617e-11 -23.843676)
(101.19226 -6.3573211e-11 -25.249381)
(117.42176 -7.8325187e-11 -25.608392)
(133.45085 -9.4055725e-11 -24.666649)
(148.13646 -1.0417562e-10 -22.325152)
(160.42078 -1.1205829e-10 -18.76152)
(169.60154 -1.173611e-10 -14.390054)
(175.45483 -1.1923063e-10 -9.7843329)
(178.25102 -1.0782165e-10 -5.6281183)
(178.73129 -9.3953174e-11 -2.6174617)
(178.28199 -7.9120134e-11 -1.1167633)
(19.304276 9.6838246e-11 -0.69097511)
(18.963599 1.0861969e-10 -0.99122013)
(18.750689 1.0048824e-10 -1.9672853)
(19.22528 1.0606526e-10 -3.3312234)
(20.523366 1.3268241e-10 -4.8163981)
(22.558673 1.202378e-10 -6.4282404)
(25.377018 1.4211328e-10 -8.2216026)
(29.15464 1.535912e-10 -10.231817)
(34.109588 1.7235461e-10 -12.486759)
(40.48486 1.9558481e-10 -14.993822)
(48.542762 1.9844879e-10 -17.720589)
(58.519056 1.9948324e-10 -20.551801)
(70.545469 2.0959749e-10 -23.319248)
(84.577917 2.2225276e-10 -25.706397)
(100.25124 2.3019583e-10 -27.350493)
(116.84918 2.2840357e-10 -27.864328)
(133.35135 2.2983349e-10 -26.949141)
(148.55904 2.343324e-10 -24.460432)
(161.32959 2.3039324e-10 -20.574595)
(170.87842 2.3243027e-10 -15.723959)
(176.89592 2.3345155e-10 -10.516468)
(179.55534 2.372785e-10 -5.7307664)
(179.57545 2.4031176e-10 -2.3384671)
(178.84884 2.4762292e-10 -0.97651652)
(19.238836 7.2172172e-11 -0.50747317)
(18.74325 7.2729584e-11 -0.79212278)
(18.346193 7.2481887e-11 -1.8863789)
(18.74068 7.6449762e-11 -3.3526937)
(20.004695 8.2057616e-11 -4.9143138)
(21.991682 5.9069066e-11 -6.6015483)
(24.745922 5.5043375e-11 -8.4700799)
(28.447769 7.6465566e-11 -10.56351)
(33.317145 9.8569713e-11 -12.920936)
(39.603845 1.2248279e-10 -15.555963)
(47.583348 1.3551623e-10 -18.441873)
(57.509933 1.5507533e-10 -21.457405)
(69.535551 1.7281668e-10 -24.440245)
(83.648322 1.9778567e-10 -27.045936)
(99.498814 2.2175269e-10 -28.890665)
(116.37739 2.4445518e-10 -29.548402)
(133.25128 2.6420846e-10 -28.684349)
(148.8806 2.774732e-10 -26.110224)
(162.05533 2.8992154e-10 -21.996716)
(171.92596 2.9867434e-10 -16.783823)
(178.10885 3.0235089e-10 -11.08596)
(180.65872 3.0288656e-10 -5.73399)
(180.21445 3.0291413e-10 -2.0211825)
(179.30523 3.0191705e-10 -0.94923976)
(19.198441 7.0194348e-11 -0.36671967)
(18.586874 7.2990252e-11 -0.62535561)
(18.049918 6.5352348e-11 -1.8221554)
(18.397054 6.3738542e-11 -3.3550712)
(19.641567 6.3827956e-11 -4.9670459)
(21.595964 6.4892407e-11 -6.7052259)
(24.306461 6.9684164e-11 -8.6221194)
(27.954817 7.4296613e-11 -10.768807)
(32.762297 9.1994464e-11 -13.192685)
(38.983337 8.9563599e-11 -15.91267)
(46.902867 1.0250282e-10 -18.90736)
(56.788019 1.1640042e-10 -22.051652)
(68.805799 1.1983098e-10 -25.189861)
(82.969176 1.331996e-10 -27.957815)
(98.942372 1.473317e-10 -29.956334)
(116.02157 1.5824951e-10 -30.734841)
(133.17027 1.8123361e-10 -29.925724)
(149.11785 1.952848e-10 -27.310271)
(162.6064 2.0690894e-10 -23.045935)
(172.7386 2.1803409e-10 -17.577045)
(179.07306 2.2454703e-10 -11.509262)
(181.5476 2.2578858e-10 -5.6778161)
(180.68032 2.2542522e-10 -1.7143669)
(179.68046 2.2294793e-10 -1.0300138)
(19.173772 5.7718155e-11 -0.26734716)
(18.482095 5.7619353e-11 -0.49992369)
(17.849305 5.5199801e-11 -1.7805407)
(18.171788 5.2719988e-11 -3.3544192)
(19.404524 3.213907e-11 -4.9979849)
(21.336545 5.2269617e-11 -6.7685329)
(24.016491 7.6966469e-11 -8.7160327)
(27.626351 7.4598904e-11 -10.897404)
(32.388364 7.6261959e-11 -13.365148)
(38.562355 8.9154193e-11 -16.140132)
(46.436816 1.0637416e-10 -19.20741)
(56.29176 1.1530595e-10 -22.437731)
(68.300382 1.4067977e-10 -25.685161)
(82.497946 1.4395268e-10 -28.567978)
(98.556443 1.6167522e-10 -30.682296)
(115.77819 1.7314316e-10 -31.552171)
(133.12751 1.7515988e-10 -30.79875)
(149.30997 1.8782036e-10 -28.158096)
(163.037 1.9017974e-10 -23.803029)
(173.37583 1.942043e-10 -18.150696)
(179.84152 1.9560586e-10 -11.816046)
(182.23422 1.922098e-10 -5.5979823)
(180.92843 1.8647707e-10 -1.4332624)
(179.70689 1.810519e-10 -1.1436151)
(19.158419 -7.1190342e-12 -0.20243022)
(18.433211 -1.0419036e-11 -0.41300914)
(17.750646 -1.225374e-11 -1.7565721)
(18.050295 -1.6889e-11 -3.3546784)
(19.248842 -1.4077044e-11 -5.0106831)
(21.123418 -3.2327444e-11 -6.7828442)
(23.731256 -5.1811547e-11 -8.7238323)
(27.263547 -3.6894135e-11 -10.902937)
(31.948358 -5.2333883e-11 -13.37929)
(38.061352 -4.6659635e-11 -16.183988)
(45.863881 -3.6251873e-11 -19.287068)
(55.702539 -4.216656e-11 -22.585657)
(67.65783 -2.4817457e-11 -25.898516)
(81.905269 -4.8320396e-12 -28.88087)
(97.945756 3.8114319e-12 -31.069755)
(115.30787 2.6870645e-11 -32.033705)
(132.65439 3.8103225e-11 -31.318798)
(149.04361 5.3680475e-11 -28.706143)
(162.65887 5.9995047e-11 -24.289414)
(173.0757 6.6574232e-11 -18.553962)
(179.15403 6.9216983e-11 -12.036277)
(180.85436 6.8493444e-11 -5.5457911)
(178.37607 6.4774237e-11 -1.2295363)
(175.7286 5.7736709e-11 -1.2576934)
(19.170811 -1.3810982e-11 -0.16038719)
(18.430476 -4.5505848e-12 -0.34966753)
(17.576103 -3.4252203e-12 -1.6964153)
(17.60575 -1.8225865e-11 -3.2375133)
(18.501222 -5.6307952e-12 -4.8094603)
(20.157506 -1.6551419e-11 -6.50717)
(22.659554 -1.9512078e-11 -8.4016342)
(26.155863 -4.8078282e-11 -10.561979)
(30.827515 -4.4191786e-11 -13.039868)
(36.927865 -4.7725467e-11 -15.861599)
(44.616478 -6.1894697e-11 -18.958576)
(54.435158 -6.4396521e-11 -22.306377)
(66.166888 -5.3534457e-11 -25.60725)
(80.407829 -4.0243871e-11 -28.674636)
(96.091241 -3.9639637e-11 -30.841819)
(113.4065 -3.555727e-11 -31.892127)
(130.19186 -2.9140662e-11 -31.130848)
(146.23323 -2.681495e-11 -28.534018)
(159.00995 -1.4735297e-11 -24.048569)
(168.58805 -9.4174306e-12 -18.266763)
(173.51735 -1.1849979e-12 -11.692497)
(173.8792 3.2888725e-12 -5.130133)
(169.52349 9.6058297e-12 -0.8301909)
(165.72202 9.1810842e-12 -1.1703236)
(19.17006 -3.8531567e-12 -0.13923744)
(17.969468 -2.337339e-12 -0.30075431)
(16.189246 -9.0259854e-12 -1.522291)
(15.595149 -3.0638601e-12 -2.8685503)
(16.518096 -1.3624681e-11 -4.3317857)
(18.411248 -2.5346862e-11 -5.9906401)
(21.077622 -3.4650097e-11 -7.8644658)
(24.610492 -3.8930761e-11 -9.9962888)
(29.231452 -3.588556e-11 -12.439209)
(35.181449 -3.3689081e-11 -15.205473)
(42.604656 -4.153295e-11 -18.222338)
(52.121064 -4.3136732e-11 -21.503868)
(63.458701 -4.2424024e-11 -24.7305)
(77.229228 -5.424925e-11 -27.740155)
(92.335541 -4.6227561e-11 -29.850748)
(108.78569 -4.8138924e-11 -30.818446)
(124.79192 -4.2309524e-11 -30.05372)
(139.51782 -4.0550442e-11 -27.402751)
(151.51148 -3.2285522e-11 -23.046339)
(159.70524 -2.9092527e-11 -17.353)
(163.84849 -2.2201877e-11 -10.996899)
(162.91317 -1.7459407e-11 -4.6082944)
(157.0421 -1.0256649e-11 -0.52258162)
(154.2918 -1.13805e-11 -1.0071855)
(18.542947 -1.8097873e-12 -0.1136505)
(15.580931 -1.1708638e-12 -0.24117691)
(12.857587 -6.8027679e-12 -1.210974)
(12.882784 4.4450626e-12 -2.3811933)
(14.399085 -2.7696294e-12 -3.7851624)
(16.48625 -2.781653e-11 -5.3765727)
(19.123209 -5.4009997e-11 -7.1561449)
(22.515233 -5.0202785e-11 -9.1764988)
(26.92387 -6.0087197e-11 -11.499409)
(32.480703 -6.4656068e-11 -14.093726)
(39.615816 -5.0712336e-11 -17.013147)
(48.452631 -5.7881038e-11 -20.078285)
(59.412556 -4.4608182e-11 -23.255289)
(72.158124 -4.2699902e-11 -26.040964)
(86.672996 -4.1045975e-11 -28.148348)
(101.66118 -4.1372822e-11 -28.938201)
(116.87371 -4.1668006e-11 -28.274398)
(130.10166 -4.0319304e-11 -25.666215)
(141.35081 -3.6982128e-11 -21.581915)
(148.39752 -3.3131246e-11 -16.157863)
(151.87005 -2.757108e-11 -10.159043)
(149.88383 -2.4528141e-11 -4.0913587)
(143.26185 -1.6599208e-11 -0.32635352)
(142.25173 -2.1835315e-11 -0.74270552)
(16.12108 -1.2728378e-12 -0.049100979)
(10.879922 -1.5940332e-12 -0.15776726)
(8.8640962 -3.1183842e-12 -0.84825678)
(10.085814 1.831045e-11 -1.8643254)
(11.896884 -4.0870304e-11 -3.1269527)
(13.892879 -4.9877062e-11 -4.5337505)
(16.331716 -8.576734e-11 -6.1169815)
(19.466309 -6.0092148e-11 -7.9422975)
(23.519385 -6.8668588e-11 -10.057672)
(28.583176 -5.9931878e-11 -12.422352)
(35.330033 -2.8263471e-11 -15.20101)
(43.326718 -7.1864445e-11 -17.994567)
(53.731251 -4.8376194e-11 -21.08139)
(65.237513 -4.5385955e-11 -23.609145)
(78.893635 -3.1381e-11 -25.692091)
(92.32712 -3.6468091e-11 -26.362869)
(106.47265 -3.8771019e-11 -25.833927)
(118.36772 -3.6605542e-11 -23.423039)
(128.77421 -3.4306808e-11 -19.711247)
(134.9326 -3.2485928e-11 -14.712154)
(137.87892 -2.8528433e-11 -9.1949419)
(135.26826 -2.4717307e-11 -3.589332)
(128.54943 -1.7804639e-11 -0.20702981)
(128.57851 -2.6717004e-11 -0.40243441)
(11.698641 -9.0563467e-13 0.025587799)
(6.0549621 -9.4971612e-13 -0.084946116)
(5.120337 9.0246233e-12 -0.49370958)
(6.6831412 1.1257142e-11 -1.2363338)
(8.2518496 -4.2273033e-11 -2.1701958)
(9.8810522 -3.5445119e-11 -3.2234671)
(11.922421 -4.8035648e-11 -4.461232)
(14.618382 -2.1969247e-11 -5.9573643)
(18.13868 -7.7336681e-11 -7.7477154)
(22.748795 -4.2587003e-11 -9.8791646)
(28.893565 -1.6044064e-11 -12.424606)
(36.023582 -1.0144933e-10 -14.958252)
(45.570611 -3.6919836e-11 -17.877952)
(55.808868 -3.5014932e-11 -20.202895)
(68.145257 -3.4521252e-11 -22.201062)
(79.897573 -1.916618e-11 -22.833951)
(92.761211 -3.4788324e-11 -22.530614)
(103.38751 -3.2645234e-11 -20.487484)
(112.90725 -3.0138002e-11 -17.304415)
(118.37001 -2.9088414e-11 -12.916133)
(120.97907 -2.6579762e-11 -8.050557)
(118.20389 -2.3131857e-11 -3.0770068)
(111.85416 -1.6745196e-11 -0.13617817)
(112.21885 -2.857421e-11 -0.11826899)
(6.555398 -1.4742065e-12 0.0560174)
(2.7132076 -2.8810361e-13 -0.038792298)
(2.3332951 4.0650424e-12 -0.22481317)
(3.3052004 5.5356301e-12 -0.60878225)
(4.2137351 -3.9126968e-12 -1.1024658)
(5.154429 -1.6295302e-11 -1.6719468)
(6.3728599 -9.5818593e-12 -2.3704216)
(8.057497 -1.6247748e-11 -3.2632079)
(10.369153 -2.405004e-11 -4.4003694)
(13.743828 -4.4306392e-11 -5.9305547)
(18.339107 -7.0812251e-11 -7.8345524)
(23.849158 -5.8932476e-11 -9.8380727)
(31.595375 -9.6412217e-12 -12.314986)
(40.056259 -3.9614052e-11 -14.411855)
(50.694369 -2.388949e-11 -16.4264)
(60.741788 -1.8380073e-11 -17.279738)
(72.430859 -2.8193748e-11 -17.530135)
(81.960268 -2.4323367e-11 -16.200299)
(90.707277 -2.1581568e-11 -13.879508)
(95.748089 -2.3129724e-11 -10.439101)
(98.298963 -2.201537e-11 -6.5348705)
(95.835349 -1.9656897e-11 -2.4765317)
(90.336464 -1.3940807e-11 -0.098539558)
(91.014198 -2.6645826e-11 0.023096818)
(2.0629338 1.3681112e-13 0.02237077)
(0.72034352 1.5025106e-13 -0.010208222)
(0.63611359 1.1208782e-12 -0.061646085)
(0.94951997 1.5657328e-12 -0.17225112)
(1.2347819 -8.8149908e-12 -0.31591713)
(1.528869 -4.6206803e-12 -0.48314791)
(1.9126379 -1.0842991e-11 -0.69057293)
(2.4468474 -1.3055734e-11 -0.95837519)
(3.1870007 -1.6038489e-11 -1.3034015)
(4.2823332 -1.2591146e-11 -1.7758374)
(5.8139852 -2.0307641e-11 -2.3803236)
(7.7504736 -6.4455266e-12 -3.0540281)
(10.710435 -8.8464261e-12 -3.983685)
(14.468087 -1.3082546e-11 -4.9661429)
(20.304173 -2.2998706e-12 -6.305771)
(26.744969 -7.332848e-12 -7.3228416)
(35.279348 -2.0262188e-11 -8.2735942)
(42.742155 -1.0846849e-11 -8.2289928)
(50.103487 -7.4379703e-12 -7.5120843)
(54.716293 -1.1485807e-11 -5.8771946)
(57.50175 -1.2348351e-11 -3.7870928)
(56.180983 -1.1764619e-11 -1.4432613)
(52.531195 -8.1490829e-12 -0.050774447)
(53.706324 -1.8029783e-11 -0.26236111)
(0.9654748 7.7309862e-12 0.012698621)
(0.31691737 8.2713859e-12 0.0012804681)
(0.27164452 7.4595102e-12 0.00043751285)
(0.28086639 -5.103837e-12 0.00064665009)
(0.33578198 1.0685757e-11 0.0011256155)
(0.43564292 1.4300606e-11 0.0026878807)
(0.68280363 1.7983792e-11 -0.029884593)
(0.30262716 -1.2016866e-10 -0.162062)
(0.085472389 -5.4434916e-10 -0.069471704)
(0.3527424 1.1607838e-10 -0.18456808)
(0.72659783 1.2196576e-10 -0.36759721)
(1.3108233 1.1589289e-10 -0.65241552)
(2.4974626 1.7538863e-10 -1.2160073)
(3.6679401 9.4338053e-12 -1.5659393)
(8.4586047 2.8926689e-10 -7.1653765)
(2.055604 3.0896389e-11 0.036533633)
(1.0262588 1.0998066e-11 0.0076504756)
(0.8388171 2.1780866e-11 0.0013030131)
(0.85001874 2.3760977e-11 0.0006869635)
(0.98912382 3.5620423e-11 0.00081599395)
(1.2322208 1.0484438e-11 0.002577614)
(1.8849423 8.4839907e-11 -0.093958617)
(0.98975605 -4.3183825e-10 -0.5121616)
(0.43092706 1.6496074e-10 -0.26646416)
(0.97550705 -4.0174135e-11 -0.55685994)
(1.7955052 -4.7643866e-11 -1.0287964)
(2.8662717 1.696609e-11 -1.6724183)
(4.596688 1.8041347e-10 -2.6952587)
(6.0379318 2.6837016e-10 -3.815671)
(10.909557 5.7156387e-10 -6.3562382)
(2.7498456 2.5374352e-11 0.053513244)
(1.8246144 1.8504362e-11 0.015531493)
(1.5073516 1.6075834e-11 0.0026150154)
(1.4897954 5.1545209e-11 -0.0010774253)
(1.6761039 1.7158398e-11 -0.0034659783)
(1.9953917 1.2004068e-11 -0.0065162903)
(2.908168 8.7236101e-11 -0.16143406)
(1.7898388 -2.2939829e-10 -0.89739656)
(0.99813714 2.8563784e-10 -0.58459171)
(1.5476101 7.9095485e-10 -0.9030154)
(2.5432718 1.876083e-10 -1.4896074)
(3.7498791 9.2322467e-11 -2.2271728)
(5.481456 1.6613602e-10 -3.2780696)
(6.9476559 4.6267888e-10 -4.3575618)
(10.864658 7.2354751e-10 -6.9018688)
(3.179617 2.1425934e-11 0.064426644)
(2.6043675 3.1276857e-11 0.024839368)
(2.2775378 1.9840305e-11 0.0061234169)
(2.2119307 4.2006971e-11 -0.0023753005)
(2.3677046 3.7570523e-11 -0.0085929049)
(2.681647 1.7437885e-11 -0.018248733)
(3.6456042 5.9870722e-11 -0.20975343)
(2.5277516 -8.5781566e-11 -1.2447437)
(1.5968413 4.6731565e-10 -0.92039399)
(1.9735658 1.3384998e-10 -1.1568297)
(2.9445014 2.6725044e-10 -1.7345752)
(4.1226116 4.9105934e-10 -2.4618629)
(5.7576311 6.1553521e-10 -3.4568841)
(7.0695863 6.3614778e-10 -4.6297555)
(10.527897 7.2834645e-10 -6.8577072)
(3.3967659 1.8893917e-11 0.069451969)
(3.1929854 2.4861089e-11 0.032815892)
(3.0064097 1.5394088e-11 0.01126676)
(2.9445806 8.0354277e-11 -0.001746954)
(3.0364789 1.1335258e-10 -0.012726774)
(3.2948985 4.7094076e-11 -0.03050235)
(4.1755883 6.2393676e-11 -0.24129465)
(3.1349929 1.2858261e-10 -1.5207025)
(2.1348782 8.1950734e-10 -1.2184091)
(2.3230853 3.898207e-10 -1.3603153)
(3.1967477 3.8932104e-10 -1.8900533)
(4.302917 6.0332926e-10 -2.589003)
(5.8288577 6.5298494e-10 -3.5406978)
(6.9995504 5.6609396e-10 -4.7681431)
(9.8893154 5.2698952e-10 -6.7284194)
(3.4653414 4.5115676e-12 0.068986518)
(3.4824995 9.4532173e-12 0.035818166)
(3.4595011 1.1759368e-11 0.013995832)
(3.4654492 1.583375e-11 -0.0011658588)
(3.5575373 4.1269068e-11 -0.015836448)
(3.7389858 2.6671776e-11 -0.043778645)
(4.5296118 9.2320595e-11 -0.25933781)
(3.6364183 2.1175402e-10 -1.7201778)
(2.6514986 3.348072e-10 -1.4962382)
(2.6895871 4.8946282e-10 -1.5678791)
(3.4305622 5.3758439e-10 -2.0331743)
(4.4440448 4.9930249e-10 -2.6980273)
(5.846415 4.6566917e-10 -3.598235)
(6.8722046 3.1922595e-10 -4.8536297)
(9.081197 2.1586206e-10 -6.5337245)
(3.4700144 3.1751447e-14 0.065077218)
(3.5495218 2.6302149e-12 0.034312126)
(3.5949041 2.6109138e-12 0.012061153)
(3.6445787 2.1189151e-11 -0.0041913115)
(3.7592131 2.1246042e-11 -0.021073605)
(3.8996373 9.8332768e-12 -0.060135611)
(4.6285152 9.0368101e-12 -0.27103517)
(3.9640405 2.5750568e-11 -1.8240743)
(3.1522177 1.9054435e-10 -1.7516141)
(3.1067134 -1.5497543e-11 -1.7929725)
(3.7078822 1.0950923e-10 -2.1937412)
(4.6097029 2.0574248e-11 -2.8184428)
(5.8489652 4.2193096e-11 -3.6557004)
(6.7439603 1.1273868e-11 -4.8756985)
(8.131921 1.2539178e-12 -6.2614814)
(3.4650296 -5.3583655e-12 0.059554625)
(3.5441036 1.2165919e-10 0.031642748)
(3.6000806 5.2714933e-11 0.0081526672)
(3.6590621 -4.9673412e-11 -0.0097198735)
(3.7766794 -3.750984e-11 -0.028889319)
(3.9115141 -1.4808793e-11 -0.080413521)
(4.5647484 -8.7493079e-11 -0.28380488)
(4.0963016 -4.5349143e-11 -1.8280571)
(3.5250578 -7.2842678e-11 -1.923212)
(3.5040669 3.0111946e-11 -1.9902947)
(4.0077458 -4.3740028e-11 -2.3496719)
(4.7838465 -2.9323742e-11 -2.9279867)
(5.8206176 4.6827501e-12 -3.6928511)
(6.5755893 1.6467706e-11 -4.7931394)
(7.2858681 -2.4366412e-11 -5.9026639)
(3.4616495 -5.8832747e-13 0.052627289)
(3.5342872 -1.0779808e-12 0.02851991)
(3.5905866 6.5874058e-12 0.0030676532)
(3.6503472 1.8357809e-11 -0.017256979)
(3.7656614 1.361823e-11 -0.039579637)
(3.8985924 1.1421094e-11 -0.10517154)
(4.4826737 4.7463669e-11 -0.29829805)
(4.1251302 -1.0751879e-10 -1.7543416)
(3.6958787 1.3813496e-11 -1.9692572)
(3.7209601 -1.9872323e-11 -2.0710598)
(4.1757435 1.3653291e-10 -2.412271)
(4.8500726 1.6844097e-10 -2.954045)
(5.6938189 8.6775138e-11 -3.6535614)
(6.3196542 -1.2754912e-11 -4.5831839)
(6.7047161 -1.3095375e-10 -5.4705604)
(3.4583159 4.5395808e-13 0.044020695)
(3.5245233 -2.0735123e-11 0.023974969)
(3.580692 9.7583167e-11 -0.0038394905)
(3.6405777 1.0143912e-10 -0.027592457)
(3.752451 2.9697885e-11 -0.054190623)
(3.8807184 8.2997634e-11 -0.13504589)
(4.3928364 7.4242976e-11 -0.31702254)
(4.1164792 1.5828843e-11 -1.6367299)
(3.7510412 -2.7412342e-11 -1.9338933)
(3.7873856 2.9189755e-11 -2.0541557)
(4.1993243 -9.927858e-12 -2.3791636)
(4.7936916 -1.9293222e-10 -2.8911355)
(5.475314 -2.0046243e-10 -3.5315032)
(5.9969017 -2.003466e-10 -4.2907745)
(6.2793312 -2.21483e-10 -4.9934217)
(3.4546133 -1.5670878e-11 0.033782061)
(3.5130409 -1.7440458e-11 0.01723097)
(3.5685719 5.2303343e-11 -0.012920791)
(3.6284222 2.3486105e-11 -0.04129245)
(3.7351103 6.334441e-11 -0.073606689)
(3.856573 2.4570786e-11 -0.16950692)
(4.2868355 2.6861021e-11 -0.34069295)
(4.0931251 2.9222558e-11 -1.4931224)
(3.7734258 -6.8823157e-11 -1.8567718)
(3.7984972 -4.4854082e-11 -1.9913804)
(4.1611771 -6.9859404e-11 -2.2971919)
(4.67669 6.3286923e-11 -2.7737496)
(5.2200182 1.8717956e-11 -3.3497935)
(5.6458176 4.5301529e-11 -3.9581874)
(5.8974575 3.8302999e-11 -4.5116783)
(3.4508605 6.1095736e-13 0.022369353)
(3.5002986 3.1781345e-12 0.0074923806)
(3.5541509 3.5261984e-12 -0.024823806)
(3.6134827 1.5709619e-11 -0.059022349)
(3.7125099 -2.4506366e-11 -0.098729822)
(3.8247602 -2.2662928e-11 -0.20677496)
(4.1655807 -4.7185139e-12 -0.36942446)
(4.0578537 -5.3836144e-11 -1.3294253)
(3.7941126 -1.0007107e-10 -1.7467494)
(3.7995516 2.057716e-10 -1.9044563)
(4.101166 2.4883127e-10 -2.1877742)
(4.5285281 1.2479017e-10 -2.6172561)
(4.948326 2.0318532e-10 -3.1173237)
(5.2773821 1.5006754e-10 -3.6000707)
(5.4828928 1.8833193e-10 -4.0324115)
(3.4474804 3.9442476e-11 0.010643098)
(3.4873361 2.0767035e-11 -0.0056686892)
(3.5378299 1.5100413e-11 -0.040227067)
(3.5954314 1.0979361e-11 -0.081023862)
(3.6837294 8.3513899e-12 -0.12950224)
(3.7837397 -1.0743116e-12 -0.24387182)
(4.0347174 -2.2163838e-11 -0.40102551)
(4.0059519 -3.7537729e-11 -1.1536153)
(3.8133476 -1.9972121e-11 -1.6004709)
(3.8007387 5.1627238e-11 -1.7934777)
(4.0296743 4.7801696e-11 -2.0539082)
(4.3598572 1.5713488e-10 -2.4247816)
(4.6661728 1.6145977e-10 -2.8379214)
(4.8993462 1.7200387e-10 -3.2111712)
(5.0401804 1.707581e-10 -3.536549)
(3.4448557 1.9317425e-11 -0.00039178269)
(3.47542 -8.6379664e-13 -0.021897198)